 0.083182 -0.027266  0.042062 -0.012774  0.012437 -0.101934  0.010225  0.006167  0.079601  0.132856 -0.067697  0.405293  0.038529 -0.039734 -0.122164 -0.029598 -0.020455  0.073224  0.075565  0.029090 -0.133326  0.018758 -0.052934 -0.065836 -0.037477 -0.006629  0.106754 -0.026856 -0.033529 -0.034670  0.003266  0.056186  0.176789  0.106937  0.023254  0.262857 -0.015707 -0.038283 -0.051530  0.039150 -0.048338 -0.048294  0.051788 -0.029450  0.024760 -0.015029 -0.011634  0.032734 -0.002334 -0.061410 -0.130467  0.027078  0.005688  0.059661 -0.035343 -0.040954 -0.008492 -0.033015  0.048477  0.158428  0.128936  0.050701  0.370154 -0.090745 -0.063795  0.523545  0.003565 -0.042847 -0.117029 -0.010740 -0.014943 -0.085939 -0.043076 -0.018827 -0.133680 -0.018706 -0.022738 -0.052758 -0.050605 -0.006267  0.030826 -0.044717  0.047920  0.066778 -0.066223  0.045179  0.055290 -0.063664 -0.035033  0.640010 -0.031149  0.029891  0.029134 -0.111170  0.039714 -0.044031  0.097949  0.116210  0.729691  0.125389  0.062456  0.843099 -0.013893 -0.039717 -0.066882 -0.043862 -0.019409 -0.141692  1.623020  0.407805  0.337283 -0.371962  1.988439 -0.509141 -0.636305 -0.336334 -0.395102  2.477499  0.100345  0.313135  3.033469 -0.867041  0.243405 -3.722923 -2.169728 -0.228243  0.105392 -1.382026 -0.045106 -0.531662 -0.562968 -0.012647 -1.649455  0.911892 -0.567764  2.299003  0.676098 -0.498320 -0.000355  0.451904  0.667460 -3.517841  2.600944 -0.227151 -3.586722 -1.747621 -0.353157  1.459338 -0.267204 -0.094489 -2.667992 -0.832815 -0.368603 -1.565781  2.222422 -0.249554  1.503354  1.978243 -0.440037  0.520581  0.499380 -0.021006  1.612714 -0.836759  0.510595  2.031139 -1.767186 -0.475122  1.006799  0.102216 -0.051676  0.448483 -1.095609 -0.934726 
 0.133456 -0.097776  0.097914 -0.003785  0.024293 -0.154268  0.105736 -0.101270  0.021615  0.134321 -0.105306  0.315895  0.048735 -0.010115 -0.076934 -0.076622 -0.136219  0.135938  0.053814  0.003568 -0.050599  0.000716 -0.061702 -0.087551  0.006624  0.002174  0.143615 -0.006227 -0.018439 -0.022466 -0.010640  0.148837  0.148320  0.043940 -0.013708  0.198691 -0.003346 -0.033839 -0.064451  0.047462 -0.060129 -0.019803 -0.053490 -0.065081  0.026009  0.056004 -0.143834 -0.061910 -0.025242 -0.032205  0.013985  0.068431  0.160691 -0.068838  0.034578  0.009594  0.019982 -0.108287  0.191739  0.061939  0.165571  0.096105  0.317089 -0.048486 -0.039562  0.508488  0.034262 -0.048452 -0.096245 -0.014795 -0.028860 -0.078281 -0.054580 -0.014134 -0.140757 -0.019057 -0.033145 -0.033612 -0.087474 -0.027510  0.010393 -0.068179  0.078592  0.117342 -0.100773  0.087688  0.025965 -0.016765 -0.051308  0.697567 -0.031504  0.027698  0.002711 -0.145694  0.084654 -0.020053  0.058996  0.029983  0.727152  0.145417  0.054052  0.905751 -0.034505 -0.037127 -0.042374 -0.048157 -0.021774 -0.146617  1.202824 -0.173661 -0.065231 -0.784756  1.119433 -0.426087 -2.220867  0.281581 -0.348142  3.401140  0.678057  0.440898  3.880181 -0.719195  0.636884 -5.053819  0.639426  0.071407  2.037025 -0.393278 -0.533247 -1.216486  0.005942 -0.018604 -2.592817  0.093273 -0.707198  2.397394 -0.140348 -0.592712 -0.310068  1.123636  0.571215 -2.388140 -0.734471 -0.634650 -2.575098 -1.844854 -0.691115  1.268283  1.688698  0.194168 -2.104610  0.005777 -0.027847 -1.604087  0.756854  0.196277  1.107478  2.443971 -0.472030  1.343482  0.439138  0.253997  1.513600 -1.103129  0.204997  2.929334 -0.862966 -0.476794 -0.462907 -2.029216  0.082784  0.077970 -1.202292 -1.004571 
 0.182985 -0.167576  0.156948  0.005293  0.037868 -0.209971  0.204447 -0.216600 -0.040918  0.135676 -0.141703  0.229218  0.057224  0.016929 -0.037118 -0.129173 -0.252617  0.200548  0.027402 -0.033881  0.039096 -0.015973 -0.070891 -0.111122  0.057824  0.009956  0.188996  0.015731 -0.001926 -0.013372 -0.019215  0.241512  0.120961 -0.019050 -0.052966  0.139364  0.009899 -0.029868 -0.076293  0.054230 -0.071817  0.008707 -0.165727 -0.093003  0.021548  0.126131 -0.276774 -0.158183 -0.042651 -0.000886  0.209812  0.116779  0.320880 -0.213998  0.105136  0.067843  0.068919 -0.202310  0.334611 -0.051898  0.203160  0.140095  0.267842 -0.007000 -0.008385  0.501503  0.063241 -0.052684 -0.079337 -0.019753 -0.042281 -0.068621 -0.066341 -0.008215 -0.150082 -0.019932 -0.043397 -0.016785 -0.122451 -0.048662 -0.007793 -0.102895  0.109355  0.173863 -0.135538  0.130227 -0.003692  0.031076 -0.072336  0.756629 -0.030322  0.023200 -0.023092 -0.181551  0.130337  0.006172  0.021646 -0.052361  0.719122  0.172765  0.043895  0.979332 -0.053975 -0.034456 -0.018924 -0.052032 -0.024954 -0.151092  0.740580 -0.703394 -0.450436 -1.172969 -0.061297 -0.343007 -3.275305  0.776108 -0.288102  3.797794  1.461878  0.527173  3.926218 -0.436915  0.969925 -5.612434  1.948547  0.292668  3.190870  1.012487 -0.948701 -1.683372  0.353101 -0.061135 -3.077829 -0.624731 -0.824689  2.199258 -0.947163 -0.658595 -0.357481  1.476517  0.461271 -0.923131 -2.897235 -0.948771 -1.481620 -1.566851 -1.069707  0.987510  3.240046  0.486154 -1.361758  0.998230  0.281133 -1.582979 -0.788454  0.653813  0.747034  2.575334 -0.484331  2.069680  0.196666  0.507217  1.311770 -1.135344 -0.120595  3.649909  0.013597 -0.463663 -1.994698 -3.654992  0.227059 -0.272210 -1.130335 -1.081145 
 0.230977 -0.230305  0.212937  0.015299  0.053503 -0.269269  0.299434 -0.338076 -0.106977  0.139793 -0.173277  0.147835  0.064072  0.041247 -0.002508 -0.179780 -0.356623  0.259390 -0.006239 -0.084713  0.127897 -0.032025 -0.081471 -0.137762  0.112671  0.015145  0.235356  0.039230  0.015274 -0.008594 -0.023706  0.329521  0.095886 -0.081754 -0.090872  0.081157  0.023468 -0.025917 -0.088997  0.060149 -0.083175  0.035191 -0.276947 -0.115723  0.009264  0.189139 -0.405907 -0.253267 -0.052122  0.020053  0.429218  0.172639  0.476157 -0.374733  0.179988  0.134429  0.126773 -0.305541  0.476596 -0.181081  0.236963  0.183687  0.221041  0.030076  0.030763  0.509448  0.091050 -0.055638 -0.068108 -0.025397 -0.054816 -0.059015 -0.078087 -0.000972 -0.160960 -0.020936 -0.053667 -0.002617 -0.152135 -0.067352 -0.025145 -0.146565  0.138007  0.219488 -0.167678  0.173712 -0.034343  0.076401 -0.093950  0.814230 -0.026055  0.016196 -0.049632 -0.218907  0.179031  0.031332 -0.014004 -0.134547  0.719983  0.208264  0.036854  1.062751 -0.072768 -0.030815  0.002246 -0.055660 -0.028910 -0.156181  0.269922 -0.969405 -0.784230 -1.475429 -1.326804 -0.297819 -3.665121  0.874820 -0.232273  3.442028  2.455551  0.570821  2.762785 -0.069469  1.237603 -4.906368  2.005006  0.531946  3.241275  2.767766 -1.379480 -1.779793  0.555255 -0.118805 -2.907531 -1.011525 -0.926322  1.707259 -1.486040 -0.688929 -0.209917  1.331535  0.302660  0.880709 -4.281994 -1.096078 -0.324651 -0.987600 -1.403383  0.630714  4.005642  0.736499 -0.610031  1.847565  0.518592 -1.398581 -2.192608  1.096481  0.451823  2.441518 -0.466976  2.535631 -0.110971  0.720337  1.144174 -1.002550 -0.436772  3.552389  0.581905 -0.439931 -2.995558 -4.468587  0.322018 -0.525703 -0.839435 -1.150946 
 0.276397 -0.289240  0.268132  0.026557  0.071077 -0.329635  0.390909 -0.465126 -0.169327  0.148364 -0.197977  0.081905  0.070633  0.062827  0.028234 -0.234852 -0.456044  0.319734 -0.049741 -0.143418  0.202527 -0.048062 -0.093194 -0.164848  0.167682  0.017935  0.279658  0.063648  0.032488 -0.007769 -0.025005  0.412705  0.073721 -0.148442 -0.129361  0.026563  0.036883 -0.021477 -0.101276  0.065050 -0.094087  0.059928 -0.385334 -0.128551 -0.007098  0.247856 -0.537400 -0.345277 -0.061126  0.025924  0.678059  0.234766  0.631813 -0.546499  0.258437  0.204809  0.194867 -0.415810  0.618039 -0.325531  0.265129  0.223446  0.173360  0.065793  0.073561  0.534792  0.118237 -0.057242 -0.061462 -0.031351 -0.066564 -0.047829 -0.089576  0.007300 -0.172295 -0.022619 -0.064000  0.009844 -0.179070 -0.084987 -0.041496 -0.194324  0.165458  0.247419 -0.196030  0.217628 -0.064631  0.117045 -0.115552  0.864332 -0.020021  0.007618 -0.073759 -0.256058  0.229269  0.059197 -0.045498 -0.212731  0.738755  0.247971  0.033173  1.149991 -0.091273 -0.026611  0.021173 -0.058899 -0.033769 -0.160950 -0.267062 -0.771472 -1.040291 -1.684399 -2.224093 -0.298589 -3.496588  0.588987 -0.177452  2.286880  3.315967  0.587118  0.394287  0.439710  1.391188 -3.069067  1.569414  0.877087  2.584825  4.159423 -1.866138 -1.466058  0.734175 -0.180540 -2.146875 -1.133989 -0.978989  0.913418 -1.462279 -0.732416  0.023145  0.680786  0.088786  3.020648 -5.368694 -1.062550  0.964829 -0.204968 -1.633421  0.124643  3.916815  0.920896  0.085874  2.221288  0.695781 -0.994420 -3.289618  1.475225  0.239128  2.088530 -0.385741  2.637574 -0.346909  0.887783  1.092503 -0.738303 -0.715659  2.211808  0.785550 -0.411244 -3.026479 -4.489146  0.342873 -0.640989 -0.349134 -1.195573 
 0.321901 -0.347828  0.325302  0.039236  0.090482 -0.392203  0.485031 -0.606897 -0.232429  0.165317 -0.214168  0.030368  0.076345  0.081905  0.057954 -0.300649 -0.557568  0.382360 -0.107894 -0.207226  0.241691 -0.064188 -0.105956 -0.192136  0.222071  0.020022  0.316535  0.089978  0.048393 -0.009898 -0.025971  0.494677  0.052353 -0.220378 -0.167440 -0.022443  0.050637 -0.016192 -0.113016  0.069336 -0.104525  0.082971 -0.490363 -0.130860 -0.029155  0.301439 -0.671833 -0.434179 -0.069567  0.015413  0.962789  0.306682  0.790345 -0.731496  0.343765  0.277173  0.274933 -0.533688  0.763255 -0.484505  0.293908  0.258963  0.129302  0.103001  0.117507  0.576474  0.144566 -0.058211 -0.058646 -0.037605 -0.077334 -0.035011 -0.101553  0.016681 -0.181625 -0.023818 -0.074595  0.022898 -0.204818 -0.100893 -0.058568 -0.243323  0.190531  0.253186 -0.220288  0.259872 -0.096247  0.150276 -0.134120  0.902809 -0.010949 -0.002049 -0.096944 -0.293481  0.281056  0.086917 -0.076866 -0.300323  0.770527  0.292931  0.032607  1.237351 -0.108997 -0.021270  0.039273 -0.062253 -0.039087 -0.164268 -0.956512 -0.076392 -1.206277 -1.816640 -2.281093 -0.307686 -2.989115  0.111738 -0.112030  0.316966  3.452750  0.596148 -2.497873  1.061173  1.399660 -0.342692  1.469510  1.259732  1.817119  4.377786 -2.350297 -0.823277  0.850152 -0.239544 -0.954646 -1.174530 -0.922953 -0.208508 -0.798489 -0.839506  0.178840 -0.423193 -0.170239  5.163807 -6.243957 -0.905821  2.418205  0.697132 -1.737205 -0.567859  3.128314  1.029654  0.758693  2.029298  0.843603 -0.317005 -4.046645  1.744764  0.095050  1.529966 -0.269180  2.385784 -0.497054  0.981954  1.108981 -0.341741 -0.926169 -0.098504  0.931870 -0.390275 -2.366276 -3.928918  0.295772 -0.541883  0.296392 -1.193638 
 0.368340 -0.405152  0.382450  0.052971  0.110843 -0.455601  0.583263 -0.760081 -0.301942  0.189442 -0.225172 -0.008413  0.082332  0.097746  0.084622 -0.373757 -0.657544  0.441774 -0.176064 -0.272488  0.233321 -0.079947 -0.119690 -0.219766  0.275788  0.020065  0.343137  0.115595  0.063314 -0.015521 -0.025633  0.576882  0.029449 -0.294330 -0.205963 -0.066225  0.063913 -0.010138 -0.125032  0.072114 -0.113633  0.103123 -0.595969 -0.118602 -0.055372  0.351223 -0.799603 -0.524548 -0.072078 -0.021905  1.272416  0.385299  0.953986 -0.932694  0.426863  0.352402  0.358623 -0.666347  0.918251 -0.667342  0.333300  0.291618  0.102440  0.142033  0.163851  0.623162  0.170468 -0.057608 -0.061342 -0.043735 -0.087250 -0.021085 -0.111855  0.026543 -0.189719 -0.025136 -0.085121  0.036341 -0.229159 -0.116494 -0.077447 -0.292405  0.213592  0.239067 -0.242017  0.299217 -0.132067  0.175214 -0.148506  0.931842 -0.002046 -0.011318 -0.119614 -0.329383  0.334815  0.113808 -0.113440 -0.385426  0.804857  0.341592  0.034868  1.324890 -0.125837 -0.015760  0.053843 -0.065205 -0.044418 -0.166605 -1.770385  0.935127 -1.277970 -1.867968 -1.463990 -0.295891 -2.313971 -0.356768 -0.047845 -2.458446  2.440786  0.641606 -4.407506  1.222652  1.356112  3.140549  2.257302  1.584354  1.233709  3.227652 -2.744402 -0.029215  0.775169 -0.286319  0.458320 -1.227027 -0.728848 -1.539151  0.263236 -0.985203  0.150172 -1.715488 -0.424404  6.152404 -6.410970 -0.805852  3.914791  1.571940 -1.744056 -1.376407  1.976268  1.063655  1.428116  1.490381  0.959558  0.560076 -4.435440  1.889599  0.028558  0.801909 -0.139295  1.823480 -0.644823  0.980502  1.137849  0.153657 -1.047610 -2.746972  1.261863 -0.411724 -1.533627 -2.952404  0.208498 -0.238439  0.964504 -1.169689 
 0.413053 -0.458448  0.442118  0.068055  0.130753 -0.520874  0.688039 -0.915381 -0.368970  0.218734 -0.230709 -0.030085  0.088418  0.111118  0.108697 -0.449940 -0.754064  0.502245 -0.245975 -0.339505  0.196761 -0.095163 -0.133467 -0.248632  0.329163  0.018671  0.360466  0.140483  0.076324 -0.023738 -0.025011  0.658975  0.011719 -0.361371 -0.239470 -0.096108  0.076595 -0.003728 -0.138025  0.073475 -0.121844  0.119993 -0.701167 -0.095380 -0.080870  0.393038 -0.915085 -0.602630 -0.075608 -0.073512  1.620255  0.472184  1.119603 -1.140458  0.500603  0.431832  0.447220 -0.814470  1.072097 -0.868780  0.380319  0.320758  0.109447  0.181880  0.211016  0.676581  0.195102 -0.056023 -0.068997 -0.049268 -0.096430 -0.008690 -0.121318  0.035977 -0.195077 -0.025974 -0.095081  0.050548 -0.250540 -0.130953 -0.093097 -0.339530  0.234601  0.212776 -0.261446  0.335510 -0.165916  0.192524 -0.159046  0.963730  0.008660 -0.020977 -0.136399 -0.364036  0.390068  0.145819 -0.154754 -0.468832  0.854261  0.395535  0.038029  1.418407 -0.141216 -0.010396  0.065744 -0.068460 -0.048976 -0.166982 -2.520672  1.886671 -1.264379 -1.763864 -0.250050 -0.285542 -1.502110 -0.700113  0.015542 -5.507090  0.473980  0.753334 -4.155542  0.211561  1.349751  6.840131  3.841149  1.744673  0.813993  1.259047 -2.943723  0.736177  0.457028 -0.292829  1.655252 -1.150920 -0.433286 -2.713000  1.251323 -1.124126 -0.021869 -2.800317 -0.627136  5.021170 -5.234576 -0.865883  5.043727  2.134794 -1.670425 -2.204707  0.763086  1.053694  1.995707  0.949450  1.003401  1.394052 -4.330234  1.897560  0.016777 -0.052253 -0.014617  1.047393 -0.939161  0.893112  1.044101  0.674811 -1.053007 -5.006832  1.673587 -0.463476 -0.776425 -1.563715  0.101859  0.284741  1.599846 -1.145098 
 0.453757 -0.507462  0.500821  0.084547  0.150510 -0.588696  0.801433 -1.078309 -0.436918  0.250052 -0.239035 -0.043465  0.094971  0.122491  0.128495 -0.528967 -0.848773  0.559321 -0.314015 -0.411385  0.165084 -0.109301 -0.147479 -0.280522  0.384657  0.018693  0.363876  0.163099  0.088251 -0.035620 -0.020148  0.741436 -0.009626 -0.418041 -0.266993 -0.109490  0.087888  0.002456 -0.153957  0.073651 -0.129790  0.132406 -0.808545 -0.058270 -0.109348  0.428861 -1.031990 -0.676046 -0.074287 -0.136964  2.003063  0.565188  1.278012 -1.358787  0.558111  0.515988  0.530785 -0.982812  1.224280 -1.087903  0.436189  0.346756  0.137258  0.225267  0.255941  0.726095  0.218096 -0.053196 -0.083262 -0.053268 -0.104335  0.000707 -0.128838  0.043698 -0.199924 -0.027215 -0.103155  0.063331 -0.271200 -0.146589 -0.110322 -0.384533  0.252013  0.178116 -0.280050  0.368940 -0.204334  0.204275 -0.165669  0.994028  0.018967 -0.029690 -0.152460 -0.399645  0.443333  0.179137 -0.200877 -0.555144  0.929155  0.454682  0.042358  1.520343 -0.154993 -0.005788  0.072814 -0.071405 -0.052064 -0.167641 -2.896544  2.420443 -1.197501 -1.508964  0.758818 -0.319393 -0.490901 -0.863189  0.076895 -7.173056 -1.100192  0.811243 -2.489266 -1.681909  1.288686  9.105956  4.896719  1.774268  0.454946 -0.769590 -2.904877  1.302356 -0.052587 -0.252818  1.975793 -0.635463 -0.152707 -3.271686  1.781568 -1.231725 -0.146734 -3.140217 -0.760001  2.614678 -3.000180 -0.944194  5.213230  1.987176 -1.495270 -2.616700 -0.246495  1.021410  2.380620  0.623530  0.946086  1.875349 -3.531329  1.782136  0.050745 -0.915468  0.106053  0.198607 -1.429598  0.728107  0.703127  1.050885 -0.969578 -6.153165  1.801566 -0.511414 -0.119705  0.180471 -0.029360  0.714198  2.029156 -1.168579 
 0.489264 -0.548397  0.559603  0.102247  0.170053 -0.657378  0.919728 -1.250473 -0.499851  0.281609 -0.251337 -0.051016  0.101287  0.132600  0.144610 -0.608671 -0.938586  0.614796 -0.380449 -0.488743  0.164270 -0.122029 -0.161663 -0.314909  0.441522  0.021992  0.356267  0.183793  0.098910 -0.050300 -0.011272  0.820701 -0.029096 -0.465148 -0.290517 -0.098824  0.098003  0.008693 -0.173023  0.073651 -0.138037  0.140776 -0.915152 -0.008800 -0.137443  0.461114 -1.157754 -0.748065 -0.072603 -0.219716  2.413170  0.663223  1.427009 -1.578114  0.600117  0.607621  0.613887 -1.169457  1.380850 -1.320089  0.485893  0.366756  0.161851  0.270591  0.296672  0.769705  0.239041 -0.049410 -0.102561 -0.055596 -0.110581  0.007290 -0.134519  0.049493 -0.203549 -0.028867 -0.108674  0.073741 -0.288877 -0.163153 -0.125235 -0.424532  0.265753  0.140544 -0.295968  0.400972 -0.242679  0.210985 -0.168985  1.026706  0.029624 -0.037641 -0.163766 -0.436401  0.491618  0.217564 -0.248731 -0.650223  1.025698  0.519107  0.048170  1.633196 -0.167675 -0.002054  0.075842 -0.073987 -0.053766 -0.168641 -2.705069  2.370050 -1.089280 -1.141458  1.291219 -0.399187  0.793789 -0.778486  0.143133 -6.005581 -0.915685  0.642778 -0.879789 -3.459828  1.106892  8.482832  3.847386  1.805853  0.092292 -2.370343 -2.640506  1.573789 -0.592779 -0.169319  1.081684  0.443096  0.040015 -2.986289  1.679164 -1.308678 -0.216992 -2.563285 -0.856699  0.485599 -0.522835 -0.835283  4.195407  0.891043 -1.143608 -2.205302 -0.964913  0.933299  2.521142  0.551072  0.778191  1.834870 -1.792394  1.537049  0.093444 -1.630494  0.244905 -0.581345 -1.995488  0.506531  0.003476  1.083176 -0.831145 -5.908222  1.379688 -0.538176  0.434910  2.038118 -0.174183  0.770147  2.182422 -1.235589 
 0.519708 -0.581579  0.616652  0.120828  0.190164 -0.726176  1.037861 -1.431582 -0.558625  0.312790 -0.266664 -0.054656  0.106481  0.141526  0.155763 -0.684864 -1.022815  0.665951 -0.444784 -0.568368  0.179728 -0.134038 -0.176454 -0.351379  0.501096  0.028859  0.347618  0.203241  0.108495 -0.068034  0.001232  0.895115 -0.047180 -0.508935 -0.310025 -0.064257  0.107618  0.014727 -0.195563  0.074471 -0.145638  0.144887 -1.024903  0.057567 -0.164123  0.485173 -1.274265 -0.811315 -0.068098 -0.312055  2.849380  0.766235  1.571625 -1.797888  0.644919  0.712816  0.697616 -1.364301  1.540673 -1.563298  0.519122  0.373596  0.166571  0.315802  0.335738  0.809547  0.257797 -0.044418 -0.126678 -0.056894 -0.116003  0.010783 -0.138388  0.054447 -0.207679 -0.029805 -0.111500  0.080036 -0.302353 -0.179271 -0.136973 -0.460051  0.275083  0.106929 -0.309080  0.430852 -0.281202  0.213439 -0.170989  1.059560  0.041202 -0.044818 -0.172272 -0.474087  0.536448  0.258682 -0.290988 -0.746184  1.137402  0.586479  0.058380  1.759258 -0.179691  0.001379  0.074448 -0.076167 -0.055221 -0.171907 -2.061781  1.812139 -0.911399 -0.743189  1.342973 -0.506921  2.230288 -0.275588  0.203557 -2.995656  0.301574  0.306304  0.109031 -4.479822  0.876982  5.912527  0.945541  1.784697 -0.201933 -3.445529 -2.206680  1.588191 -0.976770 -0.070966 -0.549916  1.711390  0.145188 -2.050132  1.062197 -1.323894 -0.381032 -1.452979 -0.994724 -0.723500  2.046409 -0.511464  2.269489 -1.019599 -0.587891 -0.794567 -1.539432  0.732347  2.404686  0.653283  0.504799  1.421003  0.945012  1.138011  0.122334 -2.067041  0.427268 -1.213683 -2.265082  0.219768 -1.109991  0.623012 -0.687976 -4.783763  0.605867 -0.554470  0.862453  3.525146 -0.299242  0.416538  2.111244 -1.322785 
 0.543688 -0.611501  0.673525  0.139773  0.210519 -0.794310  1.154495 -1.621275 -0.611581  0.340481 -0.284037 -0.060348  0.110526  0.150354  0.162818 -0.757602 -1.102002  0.716919 -0.506193 -0.646681  0.176550 -0.146284 -0.192360 -0.388798  0.564033  0.036500  0.347306  0.223377  0.117207 -0.087731  0.014592  0.964064 -0.063993 -0.551964 -0.328489 -0.023309  0.117818  0.020443 -0.219306  0.076066 -0.151494  0.147616 -1.136012  0.143733 -0.189059  0.503327 -1.373851 -0.860797 -0.052443 -0.411526  3.298909  0.870064  1.707376 -2.009537  0.704219  0.828960  0.775154 -1.560708  1.704696 -1.814522  0.541226  0.370117  0.153732  0.365621  0.371807  0.843120  0.275215 -0.038391 -0.153682 -0.058945 -0.121592  0.012852 -0.141537  0.059055 -0.211936 -0.029027 -0.112496  0.083731 -0.312507 -0.194451 -0.145844 -0.494648  0.283378  0.081569 -0.320419  0.456685 -0.319932  0.214678 -0.174094  1.080448  0.054081 -0.050106 -0.177935 -0.511373  0.577498  0.301080 -0.329726 -0.830889  1.245279  0.651952  0.073930  1.894942 -0.190953  0.005249  0.071121 -0.077963 -0.057268 -0.175856 -1.214874  1.005881 -0.627647 -0.368728  1.055571 -0.601097  3.394504  0.700834  0.244842  0.062164  1.078409  0.002213  0.576665 -4.598418  0.639436  3.129600 -2.735697  1.588206 -0.276027 -4.033983 -1.624944  1.462473 -1.056825  0.019187 -2.151888  2.607511  0.221652 -0.885110  0.227886 -1.272147 -0.732740 -0.428439 -1.189590 -1.153296  5.005325 -0.030256 -0.066356 -3.077834  0.060126  1.411718 -2.233812  0.395554  2.020190  0.806490  0.149212  0.898559  4.154518  0.648507  0.129538 -2.157484  0.664378 -1.666223 -1.839046 -0.158294 -2.409335 -0.251154 -0.591452 -3.531534 -0.112276 -0.573506  1.133872  4.094903 -0.348862 -0.063078  1.920717 -1.396272 
 0.560595 -0.637580  0.728104  0.159234  0.230615 -0.861597  1.271568 -1.820923 -0.656765  0.364930 -0.302051 -0.074413  0.114854  0.159330  0.166808 -0.826019 -1.176888  0.766817 -0.563436 -0.723980  0.150030 -0.159062 -0.210213 -0.427566  0.626031  0.041405  0.358673  0.244966  0.126085 -0.109113  0.028894  1.025074 -0.078693 -0.594904 -0.346774  0.004591  0.128499  0.025445 -0.243107  0.077274 -0.155426  0.150597 -1.246118  0.251623 -0.210684  0.519992 -1.460563 -0.899794 -0.029191 -0.512933  3.745185  0.969029  1.832510 -2.204140  0.773981  0.945146  0.838485 -1.750107  1.869107 -2.062127  0.560164  0.358898  0.136289  0.420506  0.404188  0.866612  0.292562 -0.031113 -0.182505 -0.062694 -0.127676  0.014195 -0.144447  0.062834 -0.215306 -0.027302 -0.113274  0.086951 -0.319124 -0.208208 -0.149839 -0.530671  0.290591  0.067349 -0.329571  0.477601 -0.357867  0.217670 -0.179020  1.080511  0.066897 -0.051757 -0.179292 -0.548698  0.611397  0.344588 -0.377758 -0.903496  1.335616  0.710269  0.096300  2.035554 -0.200708  0.009861  0.067198 -0.079118 -0.059540 -0.178781 -0.334938  0.261871 -0.264506 -0.063911  0.503489 -0.648779  3.604525  1.909743  0.254475  2.594202  1.014592 -0.177852  0.782328 -3.914531  0.405693  0.851620 -6.219977  1.264116 -0.078622 -4.171057 -0.944198  1.304695 -0.777547  0.103554 -3.253902  2.859121  0.313368  0.164728 -0.567534 -1.171862 -1.143817  0.196798 -1.400408 -1.255140  7.936898  0.441636 -2.416964 -4.051051  0.651599  3.848865 -3.135792 -0.030840  1.405703  0.861726 -0.241672  0.454493  6.535498  0.171452  0.126551 -1.961866  0.920366 -1.932147 -0.744626 -0.632893 -3.348808 -1.164269 -0.549946 -2.530809 -0.528881 -0.565622  1.227891  3.642939 -0.291213 -0.348354  1.652907 -1.454491 
 0.570098 -0.662018  0.782135  0.178643  0.250082 -0.929309  1.390843 -2.025082 -0.695256  0.388614 -0.324334 -0.110061  0.120157  0.167248  0.167005 -0.892097 -1.246412  0.812103 -0.615552 -0.800810  0.130720 -0.171717 -0.230203 -0.470128  0.686185  0.039902  0.377636  0.268268  0.135808 -0.133996  0.044846  1.077695 -0.092739 -0.641737 -0.370999  0.008571  0.139427  0.029793 -0.268311  0.078315 -0.158395  0.153100 -1.352740  0.379606 -0.227848  0.534776 -1.542381 -0.930350 -0.000959 -0.600059  4.169150  1.060044  1.945546 -2.374141  0.838716  1.048903  0.877003 -1.927356  2.027199 -2.294534  0.583667  0.346271  0.111493  0.481352  0.431605  0.871199  0.310176 -0.022605 -0.212917 -0.067613 -0.133890  0.012991 -0.146643  0.066360 -0.218365 -0.025479 -0.115154  0.089478 -0.323556 -0.220936 -0.149360 -0.567710  0.294438  0.056634 -0.337920  0.491233 -0.395062  0.223045 -0.186470  1.041114  0.076635 -0.048944 -0.176403 -0.588260  0.636586  0.389392 -0.440768 -0.976245  1.384381  0.758138  0.122890  2.168487 -0.209257  0.014903  0.062545 -0.080084 -0.060797 -0.180834  0.617766 -0.189575  0.132066  0.201112 -0.316767 -0.642752  2.354354  2.958177  0.213034  4.719514  0.389986 -0.240425  0.906983 -2.597534  0.164940 -0.883760 -7.520425  0.866078  0.300155 -3.798026 -0.193872  1.156822 -0.187007  0.186205 -3.767311  2.473387  0.424944  0.958700 -1.174823 -1.086193 -1.417896  0.467805 -1.573065 -1.500320  8.739423  0.796686 -4.426522 -3.153855  1.150207  5.809754 -3.904404 -0.449650  0.565916  0.665330 -0.610669  0.173133  6.802180 -0.306430  0.105219 -1.571882  1.177923 -1.979057  0.558736 -1.129183 -3.343972 -1.714784 -0.557448 -1.696673 -0.572392 -0.509033  1.099170  2.476430 -0.154141 -0.335503  1.313177 -1.466061 
 0.572850 -0.683314  0.837369  0.197538  0.269262 -0.994954  1.508266 -2.223456 -0.720218  0.412467 -0.351942 -0.166020  0.125674  0.172957  0.165137 -0.959492 -1.310029  0.856209 -0.658678 -0.874364  0.138618 -0.183310 -0.252727 -0.514605  0.744246  0.030831  0.408223  0.292881  0.146935 -0.161241  0.063056  1.121825 -0.101896 -0.688984 -0.399678 -0.005237  0.149895  0.033279 -0.294121  0.079197 -0.160615  0.157408 -1.452525  0.525275 -0.234113  0.546021 -1.617743 -0.942260  0.032407 -0.667954  4.549688  1.136207  2.039625 -2.504935  0.882724  1.133829  0.898369 -2.078780  2.167875 -2.492761  0.611684  0.334420  0.078367  0.548158  0.453455  0.861702  0.328189 -0.012857 -0.241516 -0.073635 -0.140175  0.011981 -0.147066  0.070361 -0.220464 -0.023717 -0.119380  0.092074 -0.325496 -0.231184 -0.141024 -0.604084  0.294370  0.049006 -0.343161  0.497632 -0.425689  0.226226 -0.194336  0.961546  0.082002 -0.043332 -0.163066 -0.625935  0.651939  0.438298 -0.508293 -1.042769  1.394205  0.791856  0.152854  2.286267 -0.217064  0.021075  0.058594 -0.079949 -0.061015 -0.179955  1.749199 -0.249469  0.522008  0.506102 -1.331738 -0.576316  0.082842  3.542332  0.088404  6.361818 -0.299961 -0.223977  0.963658 -0.852766 -0.080882 -2.410710 -5.376106  0.280504  0.795366 -2.894831  0.543371  0.991324  0.619114  0.272003 -3.789194  1.642556  0.523485  1.479288 -1.546556 -1.050498 -1.434921  0.650994 -1.670746 -1.858544  5.931370  1.140493 -5.453561 -1.364404  1.552667  6.463162 -3.833773 -0.746080 -0.496726  0.093276 -0.898607 -0.051849  5.119574 -0.841778  0.067661 -1.107722  1.388879 -1.742230  1.583437 -1.551846 -2.402930 -1.773114 -0.575209 -0.710812 -0.274110 -0.421440  0.649434  1.008751  0.027160 -0.144245  0.908385 -1.427877 
 0.569158 -0.699735  0.887653  0.216329  0.288936 -1.058989  1.621527 -2.408905 -0.733975  0.436873 -0.379427 -0.240176  0.130716  0.176132  0.161141 -1.027876 -1.367794  0.895060 -0.694722 -0.944410  0.156373 -0.194265 -0.277221 -0.561332  0.801564  0.015612  0.448002  0.319056  0.159014 -0.191371  0.082290  1.158793 -0.110106 -0.733821 -0.428228 -0.031737  0.160463  0.035122 -0.323017  0.080004 -0.161698  0.160980 -1.543400  0.685910 -0.231827  0.554099 -1.685813 -0.941320  0.060959 -0.710797  4.862457  1.193101  2.109781 -2.593447  0.905105  1.198508  0.906066 -2.195339  2.286685 -2.647430  0.648274  0.326456  0.033938  0.618580  0.470621  0.834766  0.346421 -0.003099 -0.269451 -0.080119 -0.147538  0.008788 -0.146370  0.075600 -0.222748 -0.021698 -0.125573  0.093078 -0.324426 -0.238725 -0.131308 -0.641804  0.288433  0.039015 -0.344767  0.497743 -0.451903  0.222870 -0.200179  0.840199  0.080889 -0.035099 -0.143604 -0.660881  0.660393  0.487807 -0.576507 -1.086591  1.359973  0.808579  0.189861  2.368062 -0.224558  0.028648  0.054520 -0.079578 -0.060375 -0.177987  3.023187  0.057528  0.868803  1.020928 -2.251642 -0.459770 -1.886700  3.334904 -0.116985  6.940140 -0.456563 -0.189751  0.761027  1.099087 -0.323443 -3.980056 -1.804512 -0.468832  1.303655 -1.556228  1.147169  0.723578  1.419362  0.381018 -3.351342  0.634777  0.596766  1.751703 -1.636789 -1.060208 -1.166379  0.851821 -1.667100 -1.974361  1.434689  1.542447 -4.989225 -0.230528  1.767783  5.419577 -2.518582 -0.859468 -1.708071 -0.827759 -1.076111 -0.537540  2.491888 -1.354682  0.023275 -0.657365  1.543213 -1.244521  2.089858 -1.855474 -1.056666 -1.468905 -0.542629  0.704015  0.341060 -0.361127 -0.241035 -0.571766  0.265578  0.086696  0.475725 -1.319068 
 0.561196 -0.711776  0.935345  0.235061  0.309115 -1.118367  1.726522 -2.574043 -0.734398  0.464188 -0.400971 -0.318212  0.135024  0.177561  0.156769 -1.090872 -1.418167  0.931540 -0.729055 -1.006950  0.169770 -0.205313 -0.303910 -0.606986  0.858458 -0.000242  0.496547  0.346268  0.171890 -0.222667  0.101997  1.187197 -0.116953 -0.774270 -0.455254 -0.062664  0.171542  0.035632 -0.354661  0.080630 -0.161774  0.163787 -1.622903  0.853318 -0.215849  0.560444 -1.743022 -0.926613  0.080102 -0.725213  5.082682  1.223824  2.153156 -2.627813  0.914081  1.249128  0.904349 -2.266758  2.379332 -2.741762  0.691655  0.321297 -0.013451  0.690985  0.479754  0.794128  0.365491  0.006296 -0.295943 -0.087353 -0.155841  0.004509 -0.145034  0.081836 -0.224105 -0.019760 -0.132596  0.093688 -0.321255 -0.242400 -0.120552 -0.683636  0.279031  0.028827 -0.342634  0.493397 -0.471178  0.209049 -0.204940  0.678329  0.072460 -0.024378 -0.117810 -0.690001  0.659218  0.539647 -0.633518 -1.099075  1.285797  0.802313  0.238917  2.394175 -0.232606  0.037153  0.049676 -0.079209 -0.059552 -0.174281  4.111104  0.469147  1.157716  1.938478 -2.593602 -0.340342 -2.620257  2.165650 -0.350079  6.123403  0.259207 -0.167264  0.119897  2.930571 -0.572983 -5.219957  0.824841 -1.104073  1.551639  0.020806  1.522425  0.250915  1.857748  0.517339 -2.473132 -0.253660  0.650832  1.796269 -1.488287 -1.110621 -0.697102  1.042462 -1.544755 -1.672528 -2.283884  1.829032 -3.452987  0.026477  1.749200  3.303614 -0.418235 -0.865599 -2.735077 -1.824907 -1.140065 -1.567256 -0.430914 -1.699815 -0.037151 -0.264677  1.665460 -0.595775  2.105492 -2.053848  0.233478 -0.955520 -0.451389  2.575869  1.183349 -0.401406 -1.546315 -2.155518  0.576196  0.269271  0.046034 -1.135405 