  3.02641702  0.          0.         -1.51320851  2.62095402  0.   0.          0.          7.41317746
