    0.00000000000000   0.00000000000000   0.00000000000000    -0.00000000000000   1.74730268318533   2.47105915213160    1.51320851173921   0.87365134159267   4.94211830426320 
