 3.109570  5.597410  2.771860  1.850690  6.321660  0.736290  4.390820  7.802660  2.764760  4.383800  4.845560  4.760630  0.551250  8.550070  0.733660  0.548550  5.569360  2.737680  3.093540  7.066750  4.838200  3.123380  8.568410  0.743650  0.547240  7.054550  4.737490  4.408090  6.334930  0.735760  1.844220  7.792510  2.737680  1.806050  4.829260  4.733810  4.405930  1.883460  0.735760  3.121450  4.118100  0.742600  3.108800  1.144250  2.772650  0.543700  1.118880  2.738470  3.090450  2.616890  4.833470  4.391900  3.354140  2.761080  4.376400  0.388130  4.763780  1.849380  3.339800  2.744250  1.794020  0.371830  4.733810  0.532510  2.602370  4.736960  0.555570  4.098240  0.733130  1.845300  1.871980  0.735760  6.991240  6.321660  0.736290  5.691800  8.550070  0.733660  5.689100  5.569360  2.737680  5.687870  7.054550  4.737490  6.984760  7.792510  2.737680  6.946670  4.829260  4.733810  5.684240  1.118880  2.738470  6.990010  3.339800  2.744250  6.934570  0.371830  4.733810  5.673140  2.602370  4.736960  5.696120  4.098240  0.733130  6.985840  1.871980  0.735760  1.910610  4.783590  7.460170  4.585980  4.781360  7.546690  0.660590  7.010920  7.529860  1.893870  6.258180  7.479630  1.895800  0.341380  7.455440  3.381150  7.047610  7.523020  4.575340  6.265210  7.550370  4.579890  0.330690  7.547220  0.665140  8.491830  7.531170  0.691590  2.560170  7.514870  1.937210  1.814100  7.447030  3.386780  8.449810  7.529070  3.404900  2.593910  7.523020  4.598780  1.813120  7.547740  0.677560  4.036090  7.522230  3.398420  3.993530  7.529600  7.051160  4.783590  7.460170  5.801220  7.010920  7.529860  7.034420  6.258180  7.479630  7.036430  0.341380  7.455440  5.805690  8.491830  7.531170  5.832140  2.560170  7.514870  7.077760  1.814100  7.447030 
 3.962800  5.527460 26.220160  2.044150  6.991160  0.458940  5.098240  6.181000  4.299200  6.474940  2.594320  5.125170  0.722050  8.684550  1.356470  2.143240  7.550430  2.830830  1.919320  6.175080  4.677670  1.893710  4.348670  0.017970  7.193050  6.314220  5.921850  5.873070  1.410290  0.606700  5.499770  0.874210  3.032890  0.855300  2.217460  5.103240  4.194430  7.827190 25.492980  2.780370  0.798470  0.314050  4.224900  3.284790  3.367470  3.160960  0.555150  2.868210  1.755370  3.550620  3.313510  3.152240  4.085940  5.515590  1.455060  8.643080  5.600420  3.959250  2.890540  1.150920  0.116110  0.851290  3.136840  6.509810  0.310300  5.073070  1.060290  5.527990  2.095560  0.558440  8.602490 25.311910  6.969600  4.011540  0.632200  6.697980  6.600390  0.393600  4.747070  7.554390  1.641880  4.463730  8.325880  4.398800  7.508270  7.240540  3.337860  3.753330  6.651140  6.244360  6.661530  3.124600  2.733440  7.377710  4.709680  4.099920  3.394810  1.590820  4.861450  3.264940  5.374410  2.864720  5.540310  5.073890  1.961480  0.456300  1.927640  0.610630  7.410570  7.202650  8.050480  2.381760  7.425240  7.288660  6.130720  0.610810  7.992140  7.529870  8.716300  7.960130  7.293840  2.820760  7.930130  1.022370  0.579380  7.888130  2.245830  8.767140  7.533080  2.096440  2.708970  7.827170  6.096120  1.967840  7.942450  6.067460  4.898500  7.822990  7.402720  4.275480  7.720970  0.852800  2.046720  7.770720  1.092070  5.073080  7.435390  2.260940  4.173220  7.588940  6.019130  6.638130  7.826240  1.024240  6.538950  7.751350  4.904520  7.460320  7.524770  3.564280  0.456850  7.693970  4.909710  8.850800  7.949590  4.825220  2.638260  8.044040  3.590690  1.864620  7.846350  3.625650  4.705440  7.248810  4.711010  4.006200  7.934780 
 3.960580  5.521460 26.224610  2.049790  6.987060  0.463210  5.083110  6.187520  4.305310  6.469440  2.596310  5.131640  0.714780  8.672290  1.355170  2.137460  7.550480  2.831930  1.929800  6.171060  4.662850  1.900160  4.357120  0.022610  7.195850  6.316450  5.927990  5.880390  1.393030  0.606110  5.496220  0.888630  3.043000  0.856230  2.206000  5.099810  4.181210  7.816140 25.470850  2.778240  0.787020  0.311990  4.230360  3.284550  3.369510  3.155330  0.560200  2.864190  1.765970  3.564960  3.305190  3.151760  4.088060  5.510070  1.444860  8.645950  5.611080  3.963280  2.886280  1.148980  0.111980  0.851160  3.141560  6.521220  0.303980  5.066480  1.055700  5.527880  2.093660  0.558440  8.601510 25.312680  6.971840  4.017270  0.623900  6.701660  6.591980  0.398750  4.739070  7.562020  1.644360  4.471300  8.337990  4.400230  7.512300  7.238860  3.337670  3.739180  6.664600  6.247670  6.669600  3.143980  2.733770  7.390890  4.734010  4.115860  3.404990  1.586890  4.852410  3.257170  5.377220  2.864850  5.540400  5.077110  1.971360  0.448290  1.903080  0.606300  7.398360  7.166610  8.043510  2.382420  7.401190  7.316940  6.134280  0.592780  8.006080  7.510840  8.689380  7.944600  7.293880  2.808420  7.951620  1.025540  0.600940  7.856230  2.252080  8.765840  7.501920  2.100910  2.711190  7.815960  6.131970  1.983860  7.921400  6.040550  4.903420  7.811820  7.373060  4.245480  7.749670  0.857180  2.027650  7.816280  1.091980  5.069170  7.461690  2.268970  4.179440  7.574020  6.015510  6.642070  7.805910  1.016050  6.526900  7.751520  4.893470  7.450810  7.506950  3.595950  0.481490  7.724030  4.921190  8.814890  7.946840  4.838150  2.655130  8.023180  3.611670  1.861240  7.840440  3.600560  4.682690  7.240300  4.722340  4.067090  7.930400 
 3.961140  5.475260 26.275010  2.105290  6.951020  0.475330  4.986580  6.211270  4.346340  6.380190  2.634020  5.173160  0.643880  8.553920  1.333460  2.100440  7.543200  2.844050  1.992710  6.135850  4.567470  1.938370  4.413590  0.074640  7.216330  6.345640  5.960910  5.921190  1.248170  0.607440  5.468270  1.024980  3.094370  0.906080  2.108430  5.065430  4.077200  7.734830 25.317160  2.763960  0.693270  0.300730  4.290340  3.282620  3.404010  3.102930  0.631740  2.798330  1.839110  3.655560  3.243600  3.147070  4.103490  5.434180  1.371770  8.666690  5.669510  3.990440  2.855020  1.115340  0.098030  0.870500  3.195210  6.627480  0.234990  5.032740  0.990430  5.517780  2.063580  0.561430  8.595210 25.329680  7.005430  4.059630  0.536400  6.736450  6.533210  0.442850  4.674760  7.622920  1.665590  4.504590  8.411710  4.431290  7.523700  7.227970  3.349470  3.613240  6.738060  6.276480  6.736540  3.262240  2.733930  7.498800  4.933420  4.245670  3.480210  1.569990  4.805620  3.222340  5.407730  2.850210  5.523150  5.123150  2.059560  0.406310  1.736300  0.572380  7.394070  7.166340  7.828220  2.034300  7.194640  7.532140  6.204850  0.442680  8.043050  7.385360  8.599840  7.884860  7.489480  2.756640  8.007430  0.931900  0.480910  7.645450  2.360260  8.766660  7.541170  2.334580  2.704390  7.769430  6.134500  2.000310  7.927200  6.073390  5.068290  7.758530  7.291320  4.242470  7.968280  1.075070  2.018980  8.109340  0.828750  4.858900  7.838360  2.137400  4.103700  7.512690  6.150980  6.374780  7.666320  0.980510  6.372910  7.671510  5.005950  7.235440  7.456770  3.682590  0.609830  7.851800  4.922540  8.665040  7.832490  4.915050  2.852400  7.811720  3.593550  2.168340  7.838530  3.518200  4.724540  7.284800  4.805310  4.320490  7.689640 
 3.964050  5.469870 26.283080  2.113490  6.946320  0.474230  4.977260  6.210970  4.350600  6.365140  2.640750  5.177090  0.633030  8.536650  1.330520  2.097380  7.542440  2.845590  1.997650  6.131100  4.559510  1.941150  4.418980  0.082810  7.218690  6.351410  5.961810  5.923430  1.229010  0.608410  5.464890  1.044740  3.097400  0.915980  2.096380  5.060150  4.064300  7.725340 25.300870  2.762520  0.681170  0.299880  4.299830  3.282810  3.409900  3.095520  0.643790  2.786200  1.846200  3.663060  3.236940  3.146200  4.105530  5.422140  1.364090  8.669320  5.673980  3.993430  2.851380  1.109380  0.098970  0.874960  3.202090  6.642210  0.224570  5.030980  0.978740  5.515600  2.057850  0.562240  8.594540 25.332790  7.011040  4.064380  0.523700  6.741330  6.527100  0.448800  4.666740  7.630480  1.668250  4.505350  8.417830  4.437250  7.522320  7.227280  3.352680  3.594830  6.743260  6.281050  6.745760  3.273120  2.734290  7.512350  4.957070  4.260940  3.488670  1.569870  4.803140  3.222320  5.412430  2.845520  5.519280  5.131140  2.071090  0.404060  1.719810  0.568090  7.399970  7.169100  7.793000  2.020220  7.201090  7.541970  6.164990  0.457140  8.033720  7.412870  8.599660  7.877930  7.492940  2.758430  8.011700  0.940340  0.466250  7.643410  2.346140  8.746320  7.578610  2.344110  2.702320  7.781300  6.137390  1.979040  7.942550  6.105270  5.048170  7.760560  7.322200  4.257170  7.987570  1.101850  2.009180  8.109400  0.802870  4.825700  7.879300  2.115050  4.094870  7.523850  6.177850  6.384870  7.657720  0.942410  6.349630  7.674870  5.024100  7.208640  7.455430  3.661130  0.604390  7.843190  4.933640  8.674790  7.821390  4.919960  2.881130  7.787580  3.609350  2.186810  7.839740  3.504840  4.766960  7.287780  4.800560  4.298280  7.648510 
 4.050530  5.415860  0.102920  2.219850  6.896390  0.432760  4.902770  6.170570  4.394890  6.173940  2.728890  5.196410  0.472870  8.311860  1.318550  2.090790  7.560260  2.853830  2.011420  6.076810  4.543650  1.940000  4.447470  0.194140  7.234070  6.467130  5.917060  5.900650  0.990560  0.634030  5.432950  1.288210  3.101970  1.052120  1.991110  4.995320  3.917120  7.622530 25.156910  2.750640  0.534620  0.292530  4.430650  3.307100  3.478230  3.003010  0.813460  2.612760  1.891280  3.683210  3.179270  3.132470  4.137040  5.287720  1.308800  8.682970  5.690050  4.025760  2.812540  1.031080  0.148690  0.942090  3.236560  6.804850  0.090630  5.043960  0.802900  5.485600  1.971270  0.580820  8.585290 25.369390  7.082750  4.105140  0.377110  6.799290  6.480520  0.521830  4.576690  7.716270  1.697530  4.477700  8.445440  4.517470  7.463170  7.240780  3.410500  3.384170  6.743020  6.363260  6.872600  3.359670  2.747390  7.664700  5.145960  4.377150  3.562570  1.598530  4.821360  3.283930  5.476770  2.731830  5.473740  5.242700  2.194450  0.424960  1.601960  0.521970  7.409150  7.282550  7.853470  2.115350  7.153290  7.529010  6.238800  0.559020  7.804560  7.408860  8.813300  7.788380  7.478520  2.609530  8.083750  1.017040  0.522680  8.087010  2.249040  8.583500  7.980180  2.292990  2.680190  7.968410  6.106530  2.011190  7.960830  6.119910  4.854350  7.697500  7.478000  4.030780  8.049470  1.001370  2.010700  7.829800  1.016630  4.969970  7.968650  2.409700  4.272070  7.893310  6.105320  6.484000  7.725610  1.069530  6.444780  7.860070  4.961520  7.388770  7.415070  3.554690  0.365060  7.675060  4.863450  8.736230  7.657230  4.895210  2.595640  7.703930  3.512660  1.775830  7.746550  3.406170  4.957690  7.200070  4.861910  4.174460  7.404590 
 4.063430  5.411170  0.115840  2.230290  6.892300  0.427180  4.898000  6.164210  4.399450  6.154970  2.737590  5.195790  0.454520  8.289160  1.319950  2.092490  7.564790  2.853680  2.010280  6.072320  4.547720  1.937500  4.446920  0.205790  7.233310  6.484650  5.913260  5.894840  0.966140  0.637910  5.431050  1.310530  3.100790  1.066530  1.985440  4.989690  3.903180  7.613080 25.146730  2.749880  0.519830  0.291410  4.444180  3.312730  3.483720  2.993960  0.832130  2.595020  1.892670  3.679960  3.175110  3.131350  4.140590  5.276400  1.307310  8.681360  5.689320  4.028820  2.809040  1.023560  0.156060  0.949120  3.234110  6.817980  0.077310  5.047530  0.783450  5.482840  1.962340  0.583610  8.584000 25.372320  7.089670  4.107330  0.363980  6.804270  6.478300  0.528790  4.568290  7.724470  1.700270  4.472970  8.444760  4.525060  7.453970  7.244400  3.417320  3.368660  6.737840  6.370530  6.886700  3.365590  2.749140  7.678640  5.153230  4.380840  3.567110  1.603850  4.826430  3.292820  5.483630  2.715970  5.471310  5.254230  2.204770  0.430570  1.596490  0.518530  7.389360  7.283490  7.891140  2.128780  7.172040  7.539840  6.226910  0.561360  7.784020  7.407950  8.803490  7.794480  7.473780  2.634140  8.079350  0.998530  0.511870  8.124910  2.268860  8.595440  7.989010  2.308350  2.671110  7.966390  6.093300  1.976740  7.942130  6.115170  4.870170  7.689350  7.501870  4.074820  8.029250  1.021440  2.025950  7.831360  1.003010  4.956760  7.969570  2.429280  4.274330  7.934970  6.097310  6.480920  7.730050  1.083940  6.470310  7.887330  4.949670  7.380730  7.404260  3.536390  0.339420  7.677510  4.898170  8.757790  7.643100  4.863660  2.584570  7.698520  3.469040  1.776190  7.735260  3.459340  4.920340  7.184250  4.851420  4.141180  7.414120 
 4.299570  5.342700  0.312100  2.347550  6.838950  0.362730  4.848390  6.049190  4.488600  5.904140  2.845520  5.174470  0.189050  8.020100  1.384410  2.139230  7.670230  2.847670  2.014920  6.070400  4.631740  1.903440  4.383590  0.376650  7.186040  6.823680  5.910120  5.788970  0.597540  0.717190  5.443320  1.526440  3.063110  1.286680  1.991250  4.935940  3.719240  7.484580 25.037940  2.748120  0.295040  0.243280  4.606350  3.506530  3.514370  2.869760  1.138150  2.377550  1.885910  3.587840  3.115830  3.128980  4.186950  5.171520  1.384410  8.589730  5.662200  4.076130  2.765080  0.932950  0.266720  1.037780  3.098630  6.916780  8.834830  5.102110  0.509740  5.452730  1.883420  0.645200  8.549500 25.405340  7.174850  4.095280  0.201230  6.795980  6.459390  0.574000  4.452010  7.842490  1.743020  4.394750  8.399070  4.612200  7.281220  7.315560  3.514390  3.284620  6.556110  6.460930  7.111500  3.428380  2.770830  0.108620  5.068510  4.335720  3.601430  1.712140  4.917580  3.350240  5.585120  2.453730  5.554230  5.410770  2.321230  0.537650  1.580470  0.510290  7.289930  7.100820  8.177720  2.005350  7.345070  7.976120  6.212360  0.428330  7.782400  7.333740  8.641480  8.212660  7.400660  2.826320  7.749480  0.875300  0.631860  8.069310  2.196850  8.856270  7.941260  2.107040  2.640700  7.990610  6.291460  1.966340  7.592350  6.109740  4.916210  7.662510  7.512960  4.240870  7.764300  0.787870  2.130490  8.259130  1.018660  4.992320  7.975360  2.212700  4.142890  7.659600  6.126900  6.417470  7.692600  1.032530  6.446370  8.198460  4.879110  7.173810  7.255670  3.585990  0.564930  7.750730  4.776220  8.633610  7.545480  5.093310  2.747490  7.710910  3.615030  2.064570  7.768800  3.499820  4.476470  7.260910  4.966430  4.215680  7.690890 
 4.318150  5.337600  0.324630  2.351730  6.834280  0.361440  4.845530  6.039910  4.496480  5.890010  2.850680  5.174080  0.174280  8.010120  1.392180  2.143130  7.680100  2.847530  2.017560  6.076790  4.636690  1.902990  4.375670  0.388770  7.181760  6.847490  5.910820  5.781760  0.571670  0.723840  5.446990  1.532480  3.058790  1.301640  1.996390  4.933680  3.708710  7.476330 25.031370  2.748950  0.279170  0.237540  4.613460  3.528930  3.511620  2.861540  1.161830  2.366310  1.884800  3.579770  3.110740  3.130130  4.188670  5.170070  1.397480  8.579310  5.659910  4.079880  2.762770  0.928160  0.273890  1.042640  3.084130  6.916300  8.832810  5.104990  0.493680  5.451050  1.883850  0.650760  8.545690 25.407850  7.179310  4.091180  0.191540  6.785350  6.456390  0.569050  4.443980  7.850190  1.746740  4.388830  8.394260  4.616470  7.267260  7.319430  3.520040  3.283380  6.538400  6.471180  7.127430  3.430750  2.771520  0.112230  5.053630  4.329590  3.603310  1.721160  4.923830  3.346520  5.591880  2.435520  5.569890  5.420800  2.328120  0.545800  1.582410  0.513120  7.289930  7.122560  8.177100  2.035980  7.376980  7.982470  6.175380  0.440300  7.792230  7.333250  8.644070  8.228370  7.420960  2.805100  7.748640  0.849730  0.642100  8.079380  2.181730  8.837670  7.934370  2.114440  2.643250  8.000280  6.326080  1.911500  7.572870  6.126230  4.914370  7.667450  7.531650  4.222470  7.765940  0.785250  2.135120  8.237250  0.983550  4.944950  7.955070  2.170280  4.143370  7.634200  6.133240  6.420440  7.690340  1.031640  6.450570  8.215150  4.857760  7.184620  7.257180  3.566100  0.556080  7.741970  4.811130  8.649040  7.565260  5.097440  2.793250  7.715410  3.618440  2.055440  7.792740  3.492710  4.510220  7.259890  4.929990  4.244470  7.688660 
 4.621260  5.230940  0.438250  2.312020  6.697230  0.425730  4.807940  5.896360  4.635870  5.751260  2.872390  5.225000  0.050070  8.032490  1.532010  2.185700  7.890890  2.865660  2.052410  6.284550  4.647290  1.951400  4.195490  0.603450  7.131000  7.030320  5.955440  5.734900  0.221250  0.800510  5.523290  1.523530  2.978500  1.451610  2.104680  4.908590  3.608570  7.356080 24.911170  2.794310  0.079600  0.148540  4.651360  3.945870  3.352680  2.734330  1.534010  2.243280  1.903510  3.469660  3.002950  3.137100  4.189220  5.235430  1.700810  8.385620  5.581490  4.167150  2.755740  0.876700  0.378890  1.093940  2.845700  6.810630  0.226860  5.077790  0.353870  5.464100  1.972760  0.739930  8.452770 25.479540  7.218120  3.976020  0.073900  6.451540  6.381750  0.284160  4.285470  7.908330  1.864970  4.281120  8.307630  4.654560  7.023220  7.297400  3.581380  3.352710  6.416250  6.656380  7.300720  3.354100  2.718990  0.097200  4.814210  4.296810  3.694470  1.845640  4.978580  3.189100  5.670610  2.230050  5.908670  5.592330  2.470070  0.683380  1.645620  0.607760  7.371710  7.274740  7.977900  2.074890  7.123870  7.706660  5.969020  0.659510  7.983050  7.459260  8.767090  8.060680  7.280040  2.858690  7.767020  1.061580  0.505370  8.026750  2.327160  8.460560  7.998030  2.084550  2.719750  7.832840  6.052880  2.044960  8.012290  5.959010  4.919830  7.668570  7.340210  4.240020  7.776790  0.851110  1.976970  7.843210  0.894620  4.957700  7.798380  2.109360  4.155140  7.843380  6.037410  6.523970  7.789500  0.829460  6.364250  7.794290  4.921780  7.411020  7.565790  3.488120  0.405640  7.924630  4.887520  8.778620  7.868880  4.795950  2.766750  7.667020  3.425280  1.870370  7.833080  3.467630  4.664550  7.484180  4.742680  4.119730  7.480770 
 4.634680  5.221710  0.439910  2.303940  6.687100  0.431410  4.806880  5.890890  4.644360  5.748460  2.871650  5.228280  0.047560  8.038730  1.536820  2.185500  7.905660  2.868280  2.053280  6.297660  4.643770  1.956540  4.182890  0.616290  7.129080  7.031040  5.957700  5.737880  0.207720  0.801040  5.527380  1.519770  2.974490  1.452840  2.110510  4.907740  3.606510  7.349560 24.904890  2.799160  0.073700  0.145860  4.649890  3.965110  3.339530  2.728520  1.550120  2.238150  1.907370  3.467970  2.997040  3.135460  4.189010  5.241740  1.719960  8.375840  5.573810  4.174330  2.757410  0.875020  0.384070  1.095000  2.836070  6.801830  0.258370  5.071760  0.354750  5.469110  1.977630  0.743660  8.445930 25.485620  7.218590  3.968080  0.070550  6.432660  6.380730  0.260960  4.274630  7.906210  1.875840  4.274610  8.302840  4.655150  7.009230  7.292970  3.585580  3.366710  6.420610  6.663300  7.302650  3.341600  2.710500  0.094840  4.804990  4.301840  3.703460  1.849140  4.977820  3.177910  5.672270  2.226370  5.926540  5.603230  2.479330  0.691660  1.650600  0.613700  7.380700  7.265240  7.964250  2.078470  7.120810  7.682330  5.992030  0.640580  7.994840  7.470140  8.757970  8.050460  7.274710  2.863200  7.778430  1.035590  0.503530  7.976460  2.313850  8.468240  8.010980  2.038830  2.735510  7.813840  6.077530  2.061040  8.042230  6.023580  4.932400  7.672360  7.306660  4.252460  7.763100  0.807330  2.006840  7.853750  0.917270  4.942010  7.804240  2.082870  4.120100  7.862410  5.985210  6.491180  7.793520  0.797620  6.381780  7.768950  4.894730  7.401100  7.573340  3.518030  0.401880  7.953510  4.916330  8.773560  7.880060  4.810780  2.739040  7.685050  3.396440  1.870100  7.806610  3.424150  4.671910  7.498300  4.761490  4.103910  7.494520 
 4.679500  4.904060  0.492430  2.037000  6.540590  0.426960  4.852720  5.862990  4.812910  5.826420  2.921550  5.221300  0.054580  8.089000  1.539720  2.055520  8.270620  2.982160  2.075870  6.342570  4.464340  2.070780  3.895510  0.807470  7.077920  7.008390  5.875870  5.830930  0.041360  0.732830  5.567090  1.406280  2.907060  1.362140  2.201770  4.882720  3.598740  7.205560 24.872010  2.953430  0.052870  0.176450  4.545780  4.098200  3.066040  2.733140  1.616530  2.107190  1.980670  3.664870  3.047720  3.065300  4.214750  5.388260  2.070480  8.371610  5.458720  4.396150  2.785700  0.869660  0.467840  1.042270  2.872560  6.626560  0.923790  4.879830  0.621740  5.623780  1.990950  0.772810  8.282950 25.642720  7.194620  3.833850  0.109340  6.292200  6.564180 26.079860  4.146850  7.790200  2.119390  4.174150  8.216400  4.627250  6.813190  7.380420  3.795550  3.609520  6.484920  6.715030  7.196200  3.085330  2.443290  0.038240  4.687850  4.484310  3.847370  1.794290  4.874780  2.992150  5.643420  2.369700  6.045700  5.754700  2.535590  0.860610  1.774490  0.633870  7.299010  7.189930  7.929200  2.067940  7.213490  7.355410  5.793490  0.505450  7.984960  7.051780  8.698290  7.920340  7.226200  2.570600  7.919740  0.747820  0.596550  7.901930  1.962930  8.678730  7.499230  2.128050  2.714980  7.906670  5.979280  1.886870  8.056660  5.884100  4.847910  7.964090  7.200310  4.002360  7.972490  0.834070  2.013610  7.920840  0.858860  4.858660  7.658160  2.134280  4.130580  7.510290  5.919710  6.261340  7.820050  1.009760  6.420420  7.809520  4.820840  7.172970  7.937790  3.330750  0.593480  7.752230  4.404160  8.597760  8.127870  4.705150  2.613250  8.146610  3.369250  1.945010  8.095780  3.419110  4.744720  7.350840  4.666020  4.073530  7.967510 
 4.676130  4.888830  0.496960  2.021240  6.536470  0.420230  4.859690  5.863080  4.819150  5.835820  2.931970  5.216930  0.057430  8.085490  1.538150  2.043840  8.291550  2.991000  2.076850  6.333150  4.450650  2.077220  3.880000  0.811110  7.074360  7.005780  5.871050  5.833300  0.036430  0.726630  5.565290  1.398350  2.902000  1.353990  2.205490  4.880720  3.599300  7.197530 24.876430  2.963500  0.054400  0.181550  4.538360  4.093240  3.053470  2.739490  1.610600  2.099910  1.982590  3.682000  3.061910  3.060550  4.216340  5.394980  2.084470  8.381740  5.456450  4.411030  2.781850  0.871500  0.470710  1.036570  2.885400  6.620380  0.953330  4.868670  0.641490  5.631990  1.990600  0.772710  8.274140 25.651300  7.191760  3.829100  0.116280  6.291920  6.580390 26.057010  4.147440  7.782230  2.130870  4.173380  8.212570  4.622740  6.807810  7.397600  3.808380  3.615610  6.490200  6.713970  7.186680  3.077430  2.426870  0.034490  4.683090  4.494080  3.850330  1.786680  4.864790  2.985290  5.642540  2.383550  6.042190  5.757040  2.529150  0.868200  1.780780  0.629830  7.260470  7.202990  7.926910  2.091760  7.176850  7.319730  5.802060  0.533540  7.960500  7.040250  8.708100  7.949940  7.208630  2.615560  7.900970  0.756600  0.608960  7.903740  1.924860  8.663140  7.493170  2.111610  2.712760  7.917440  5.981170  1.854310  8.067640  5.895810  4.855930  8.006160  7.266720  3.992790  7.981440  0.815500  2.001790  7.938100  0.826930  4.849710  7.655020  2.109430  4.132180  7.504560  5.943370  6.275580  7.837940  1.006810  6.391780  7.800520  4.772760  7.152690  7.957600  3.296880  0.594560  7.743400  4.436300  8.572510  8.114750  4.669440  2.611340  8.169760  3.345860  1.947620  8.112870  3.448140  4.738380  7.348920  4.690910  4.072180  7.958220 
 3.113420  5.615270  2.752710  1.850690  6.321660  0.736290  4.366680  7.834830  2.775020  4.382510  4.863240  4.767600  0.551250  8.550070  0.733660  0.572140  5.592090  2.720970  3.105340  7.078010  4.835100  3.123380  8.568410  0.743650  0.527390  7.048600  4.728480  4.408090  6.334930  0.735760  1.841020  7.780970  2.745110  1.833270  4.844650  4.726170  4.405930  1.883460  0.735760  3.121450  4.118100  0.742600  3.131820  1.130730  2.761610  0.527410  1.159960  2.758180  3.094920  2.602150  4.776760  4.391410  3.319140  2.781410  4.345610  0.371330  4.764600  1.879080  3.305110  2.762240  1.766870  0.360720  4.735100  0.519480  2.621820  4.731640  0.555570  4.098240  0.733130  1.845300  1.871980  0.735760  6.991240  6.321660  0.736290  5.691800  8.550070  0.733660  5.702080  5.577620  2.742270  5.697260  7.063390  4.728440  6.993330  7.796930  2.743280  6.938790  4.836900  4.739290  5.689940  1.113450  2.743890  7.002900  3.350830  2.733310  6.940580  0.412690  4.738570  5.660960  2.606290  4.716400  5.696120  4.098240  0.733130  6.985840  1.871980  0.735760  1.942230  4.770430  7.489760  4.611520  4.830840  7.564340  0.741480  6.997410  7.516040  1.890610  6.192900  7.445460  1.915640  0.373840  7.405240  3.363320  6.988310  7.452390  4.504940  6.236620  7.613430  4.594200  0.311740  7.516810  0.739440  8.504760  7.521770  0.712890  2.590040  7.595810  1.963830  1.836400  7.489540  3.309940  8.568730  7.523020  3.353610  2.607740  7.561720  4.590130  1.743700  7.485950  0.655990  3.990720  7.491170  3.391960  4.070970  7.485530  7.066390  4.771040  7.386780  5.767000  7.032090  7.513320  7.030650  6.280760  7.493380  7.077110  0.298740  7.425980  5.873910  8.564850  7.501810  5.838110  2.505170  7.494760 
 3.115490  5.624050  2.743270  1.850690  6.321660  0.736290  4.354770  7.850740  2.780130  4.381990  4.871960  4.771320  0.551250  8.550070  0.733660  0.583820  5.603250  2.712780  3.111270  7.083610  4.833560  3.123380  8.568410  0.743650  0.517500  7.045640  4.724140  4.408090  6.334930  0.735760  1.839400  7.775400  2.748940  1.846880  4.852300  4.722500  4.405930  1.883460  0.735760  3.121450  4.118100  0.742600  3.143200  1.123890  2.756110  0.519370  1.180270  2.767920  3.097120  2.594780  4.748560  4.391270  3.301900  2.791420  4.330310  0.362980  4.765050  1.893750  3.288040  2.771210  1.753480  0.355280  4.736010  0.512940  2.631520  4.729440  0.555570  4.098240  0.733130  1.845300  1.871980  0.735760  6.991240  6.321660  0.736290  5.691800  8.550070  0.733660  5.708460  5.581710  2.744560  5.701870  7.067890  4.724070  6.997500  7.799250  2.746080  6.934870  4.840650  4.742700  5.692750  1.110760  2.746580  7.009190  3.356440  2.727840  6.943620  0.433080  4.741610  5.655020  2.608300  4.706990  5.696120  4.098240  0.733130  6.985840  1.871980  0.735760  1.962340  4.761320  7.502980  4.619250  4.857160  7.571380  0.767810  6.993600  7.507650  1.906650  6.166070  7.430780  1.944400  0.387500  7.384300  3.328260  6.965970  7.418150  4.483290  6.224960  7.641020  4.593980  0.303420  7.501400  0.762510  8.509370  7.513280  0.734450  2.601700  7.633180  1.975480  1.854090  7.513170  3.264750  8.617660  7.515930  3.319090  2.606640  7.576510  4.591010  1.722130  7.456950  0.637460  3.971260  7.476510  3.381070  4.108340  7.465930  7.078180  4.776970  7.347800  5.758710  7.044000  7.507090  7.035400  6.286620  7.500200  7.113860  0.276090  7.409000  5.900840  8.586320  7.488000  5.840350  2.472130  7.479630 
 3.295690  5.763810  2.608640  1.850690  6.321660  0.736290  4.259770  7.958700  2.822090  4.453330  5.073900  4.868300  0.551250  8.550070  0.733660  0.777980  5.705020  2.625260  3.184930  7.109350  4.825700  3.123380  8.568410  0.743650  0.343670  6.952750  4.687570  4.408090  6.334930  0.735760  1.796720  7.814230  2.859990  2.146770  5.010350  4.588360  4.405930  1.883460  0.735760  3.121450  4.118100  0.742600  3.237030  0.997560  2.560140  0.374660  1.519050  2.907180  3.153810  2.292000  4.559600  4.566370  3.127010  2.701250  4.003620  0.284550  4.933070  2.031990  3.138470  2.683110  1.460060  0.260090  4.786150  0.412360  3.020080  4.835140  0.555570  4.098240  0.733130  1.845300  1.871980  0.735760  6.991240  6.321660  0.736290  5.691800  8.550070  0.733660  5.842920  5.671520  2.795120  5.725440  7.276930  4.619340  7.061120  7.968720  2.763140  6.847370  4.923290  5.043120  5.784720  1.023790  2.806250  7.086230  3.655160  2.638660  6.955830  0.920960  5.054170  5.570620  2.756480  4.698340  5.696120  4.098240  0.733130  6.985840  1.871980  0.735760  2.126120  5.018800  7.517720  4.661160  4.671640  7.221670  0.768800  7.155580  7.148970  1.940280  6.438190  7.329370  1.827030  0.471260  7.264050  3.477960  7.181520  7.173050  4.571950  6.222660  7.260220  4.547940  0.272590  7.195270  0.668940  8.695490  7.155710  0.930780  2.729470  7.272460  2.040900  1.878590  7.389530  3.246730  8.619050  7.395560  3.291280  2.676030  7.480260  4.789080  1.834080  6.937220  0.878180  4.097600  7.226790  3.334760  3.948670  7.374540  7.435290  4.910850  6.894830  5.980910  6.901850  6.932090  7.391330  6.363230  6.967010  7.066260  0.224790  6.764600  5.847740  8.419280  6.980620  5.987680  2.081590  6.307380 
 3.308020  5.764260  2.611030  1.850690  6.321660  0.736290  4.269970  7.944000  2.819800  4.461960  5.080010  4.872460  0.551250  8.550070  0.733660  0.778740  5.698910  2.629690  3.181440  7.102830  4.826110  3.123380  8.568410  0.743650  0.343350  6.947620  4.689830  4.408090  6.334930  0.735760  1.795810  7.825130  2.863940  2.153980  5.012620  4.579960  4.405930  1.883460  0.735760  3.121450  4.118100  0.742600  3.228720  1.001210  2.552540  0.371950  1.522400  2.908980  3.154280  2.277130  4.578520  4.580790  3.134270  2.681900  3.995110  0.288970  4.947320  2.026540  3.149250  2.665500  1.452230  0.258020  4.788270  0.415440  3.042790  4.845540  0.555570  4.098240  0.733130  1.845300  1.871980  0.735760  6.991240  6.321660  0.736290  5.691800  8.550070  0.733660  5.846850  5.675060  2.797480  5.720240  7.290100  4.615840  7.062550  7.979920  2.760350  6.842580  4.926850  5.059010  5.787970  1.020410  2.809360  7.084850  3.673670  2.640850  6.951910  0.940510  5.068090  5.565430  2.777320  4.684570  5.696120  4.098240  0.733130  6.985840  1.871980  0.735760  2.107680  4.994670  7.522660  4.684010  4.657920  7.177630  0.820530  7.165740  7.135390  1.914320  6.414830  7.322670  1.836370  0.458970  7.227110  3.446630  7.158080  7.162470  4.571600  6.212120  7.257860  4.539860  0.296660  7.196280  0.698030  8.683820  7.145670  0.928160  2.718110  7.191150  2.048220  1.919340  7.375290  3.241610  8.675510  7.418960  3.315890  2.664570  7.462570  4.711610  1.822580  6.931010  0.901240  4.131930  7.213420  3.413200  3.999130  7.340160  7.442300  4.920980  6.917270  5.967790  6.897920  6.864160  7.382500  6.355310  6.938970  7.067300  0.190720  6.805410  5.852270  8.427430  6.928140  6.027810  2.024910  6.363330 