-336.28970496
-324.88786843
-325.44898137
-325.42960927
-325.25620936
-324.77158893
-325.13309651
-323.90679410
-323.91042521
-326.28923446
-326.27894081
-325.61960726
-325.27460179
-320.50888554
-320.07435990
-315.49466695
-316.19141055
-318.24655043
-318.52659823
-318.20292977
-319.29367676
-319.82373624
-320.23199080
-320.05604190
-319.85490791
-320.25387558
-320.36440463
-319.93287317
-320.07580843
-321.93816553
-321.39341719
-319.30894522
-318.69714328
-321.04045552
-321.02617561
-323.14608812
-322.57659810
-322.53732576
-322.17850879
-321.24369214
-321.48014356
-320.22585212
-320.18770483
-379.73225706
-379.13588315
-374.89802095
-375.30968638
-376.33617766
-376.39061202
-433.34872172
-432.85229823
-433.64818000
-433.27812507
-433.35834183
-433.14370753
