 0.082834 -0.027745  0.022772 -0.026279  0.002595 -0.101802  0.018992  0.011638  0.060261  0.132846 -0.064990  0.321182  0.015157 -0.036214 -0.114512 -0.022506 -0.017350  0.054073  0.060631  0.003410 -0.228193  0.029234 -0.046460 -0.071775 -0.050862  0.016677  0.018918 -0.005386 -0.035181 -0.036155  0.002824  0.050343  0.155163  0.087351  0.008718  0.199772 -0.009085 -0.036913 -0.051056  0.035953 -0.062179 -0.071194  0.060912 -0.024733  0.011232 -0.003939 -0.014864  0.044195  0.019659 -0.059965 -0.159412  0.019023  0.012160  0.059339  0.010503 -0.024322 -0.055389 -0.024369  0.050224  0.133079  0.109618  0.046570  0.232955  0.027595 -0.006620  0.063184  0.008745 -0.046890 -0.105390 -0.010616  0.003202 -0.085179 -0.051146 -0.018307 -0.138480 -0.006521 -0.018735 -0.049716 -0.049982  0.006674  0.039067 -0.035113  0.069970  0.008947 -0.074623  0.021528  0.040680 -0.041258 -0.057675  0.563421 -0.048425  0.021237  0.049113 -0.111138  0.045968 -0.022988  0.090713 -0.006050  0.111106  0.027695  0.122341  0.455475 -0.012679 -0.038221 -0.064001 -0.045639 -0.031401 -0.137661  1.695423  0.613531  0.478545 -1.406639  1.837206 -0.467124 -0.750784 -0.182535 -0.345274  2.484569  0.033618  0.308614  2.695886 -0.488905  0.352785 -3.776325 -1.800361 -0.150031  0.427652 -1.483381  0.064547 -0.057726  0.184028 -0.028295 -1.028405  0.392707 -0.602612 -0.409106 -0.557492 -0.700483  1.663224  0.436354  0.723795 -3.707121  2.075240 -0.222856 -4.242449 -2.494450 -0.430924  0.795931  0.574683 -0.089443 -1.890979 -0.001942 -0.310653 -1.142344  2.241842 -0.187415  2.373060  1.253458 -0.409888  0.528707  0.836351 -0.170377  1.699603 -0.863443  0.508967  2.381287 -0.596261  0.436919  0.545529 -0.391112 -0.148973  0.700588 -2.571638 -0.590133  0.225564  1.042278  0.741468 
 0.606730 -0.056298  0.759756  0.536447 -0.258206 -0.954385  1.027041 -1.278570 -0.349796 -2.651854  1.207418 -0.328114 -0.536503 -1.063448 -0.953352  0.181393 -0.742212  0.287330 -0.709006 -0.213946  0.498531 -0.414313 -0.319784  0.797496 -0.098760  0.406779 -0.462716 -0.458637 -0.436055  0.243181 -0.037704  0.915565 -1.193790  2.389290 -0.674244 -0.090393 -0.032099  0.274344  0.778246  0.089887 -0.191942  0.235377  0.795119 -0.159703  1.081778 -0.396823  1.798173 -1.607382 -0.139180 -0.602279 -0.092989 -0.035827 -0.046306 -1.485299  0.212516 -0.141566 -1.180340 -0.278023  0.133671 -0.994262  0.680524  1.090656  1.393218  0.823763 -1.096809  0.647963 -1.300770 -0.496941 -0.629388  0.109941  0.070414  0.605122  0.897990 -0.025175 -1.343844  0.335993  0.229977  0.153756 -0.130673  0.107143  0.194735 -1.072047 -0.764838  0.976901 -0.814905 -0.019902  0.544461 -0.138020 -1.237454  0.616328 -0.037434 -1.678421 -0.455594  0.387192  1.154504  0.653762 -0.098069  0.494343  0.929630  0.728586  0.451699 -0.405116 -0.954939  1.020907  0.753863  0.864765  0.761576  0.065531  0.987131  2.015220 -1.726218 -5.445302 -3.371542  0.675502  3.276421 -2.826740  0.318274 -3.405782 -0.145542  0.786698  2.224488 -1.335405 -1.771250 -2.252870 -0.231352 -0.826698  1.692574  1.030274  1.404032  3.733037  0.886297 -0.800984  0.546709  4.380386  1.118316 -0.226521  1.312380  0.008148 -1.342451  0.579521  0.712637  1.035603 -0.189451  1.604393 -2.884921 -1.289287  2.835048  0.308127  0.168153 -1.201914  1.955191 -3.566665 -0.009710  1.018646 -0.789133 -2.049581  2.160902 -0.446220  1.230064  1.346293  5.238949  1.152086 -2.487536 -4.262189 -2.571532 -1.676451 -1.767322 -0.678948 -3.082273  1.896836  0.292588 -1.101347 -0.875735  2.359440  3.291937  4.964894 -2.557087 
 0.673023 -0.030666  0.752050  0.536809 -0.238008 -0.975012  1.028490 -1.284620 -0.337244 -2.542991  1.179866 -0.372623 -0.568509 -1.067722 -0.843340  0.243640 -0.640971  0.259161 -0.768835 -0.200851  0.625579 -0.464211 -0.356890  0.779381 -0.085209  0.419484 -0.497398 -0.553696 -0.437506  0.251893 -0.030765  1.001841 -1.252311  2.318800 -0.584611 -0.216007 -0.027064  0.262292  0.824604  0.095489 -0.193300  0.235135  0.799332 -0.114289  1.024871 -0.399067  1.709856 -1.623960 -0.240450 -0.724519 -0.004728 -0.044083 -0.088193 -1.637041  0.210761 -0.141721 -1.220074 -0.252527  0.115480 -0.967034  0.734108  1.058141  1.229626  0.841483 -1.049345  0.723833 -1.332948 -0.482206 -0.655736  0.120801  0.071213  0.588040  0.867879 -0.064189 -1.272784  0.316766  0.257801  0.160786 -0.112532  0.089909  0.151154 -1.126968 -0.841273  0.980944 -0.853823  0.008931  0.568386 -0.248847 -1.430750  0.293705  0.029224 -1.653538 -0.338388  0.331620  0.940284  0.549513 -0.130645  0.552524  0.998039  0.877832  0.432327 -0.492618 -0.933817  1.018023  0.688691  0.883351  0.898822  0.040393  1.051199  2.977700 -1.700612 -5.523464 -2.545962  0.663246  3.468552 -2.023179 -0.017744 -2.521006  0.689063  0.807632  2.824635 -1.005053 -1.667476 -2.554358 -2.253836 -0.474265  2.107173  1.328377  1.939128  3.412173  0.618219 -0.524827 -1.449229  2.494279  1.473727  0.120304  1.241765  0.096715 -0.762536  1.400995  0.475015  1.432425  1.139281  1.038010 -3.084592 -1.401990  2.608968 -0.556647 -0.563097 -0.730868  1.809082 -4.158701  0.013254  1.240640 -1.029201 -1.831698  2.385493 -0.538208  1.275956  0.198544  3.056326  0.370743 -2.527643 -2.650214 -2.237073 -1.164174 -0.822960 -0.699567 -2.831814  3.049570  0.422489 -0.389858  0.170773  2.089696  3.098430  2.433077 -2.414234 
 1.179868  0.169302  0.646763  0.464266 -0.026123 -0.904395  0.886067 -1.105013 -0.280347 -0.998638  0.550346 -0.452258 -0.843605 -0.913248  0.192647  0.651610  0.328346 -0.093719 -1.135328 -0.125170  1.685747 -0.794614 -0.671010  0.581321 -0.070102  0.979378 -1.598714 -1.174404 -0.484938  0.312165  0.055539  0.968287 -1.086110  0.947681  0.286652 -0.312752 -0.009959  0.169776  1.021116  0.120323 -0.197606  0.172847  0.720071  0.270643  0.399112 -0.306260  0.990670 -1.322307 -0.839539 -1.551129  0.432514 -0.198408  0.134460 -0.497810  0.613904  0.050364 -0.946740 -0.094195  0.075078 -0.512562  1.033397  0.628096 -0.380559  0.383264 -0.569093  0.878018 -1.263998 -0.275140 -0.729459  0.181936  0.017725  0.255418  0.388990 -0.209962 -0.433514  0.170111  0.477252  0.179253 -0.000212 -0.006005 -0.019188 -1.181871 -1.129337  0.645627 -1.069643  0.340727  0.636254 -0.912888 -1.413292  0.723381  0.449398 -1.226786  0.225859  0.011493 -0.910596 -0.668973 -0.361081  0.748172  1.232359  1.747756  0.309757 -1.288437 -0.469953  0.738467  0.048290  1.147581  1.679742 -0.046687  0.419106 -1.422912  0.315522  4.865837  2.686554 -1.518213 -2.686097  2.632587 -1.063053  2.100170  1.244705 -0.123035 -2.694632 -0.597948  0.225336  2.657263  2.072811  2.534190 -2.809497 -1.887642  1.531384 -3.894587  1.117259  1.380703  2.461314  0.089190  0.456606 -0.785410 -7.604574  0.655673  1.419353 -1.225029 -0.538201 -2.377307 -1.671870 -3.255256  4.040927  1.739901 -1.836455  1.703932  1.439243  1.317039 -0.192397  7.680868  0.936365 -3.449110 -0.304538  1.614606 -0.836661  2.256326  0.200228 -1.687567 -0.756344 -1.527380  0.517621 -0.068055  0.124502 -1.094698 -1.517598  0.605277  3.817169 -5.231353 -0.179475 -2.511571  1.981565 -0.581834  1.562027 -1.792590  0.007357 
 1.227163  0.185199  0.631328  0.440862  0.005522 -0.867602  0.858161 -1.059036 -0.253161 -0.828950  0.472416 -0.478835 -0.865291 -0.868676  0.298733  0.678833  0.431746 -0.138570 -1.161303 -0.104809  1.793945 -0.818932 -0.707665  0.554152 -0.081467  1.004966 -1.783627 -1.210039 -0.490449  0.320948  0.071006  0.874137 -1.002578  0.804498  0.415381 -0.268329 -0.008062  0.158032  1.030487  0.119744 -0.201106  0.152600  0.689808  0.323360  0.308391 -0.285457  0.919822 -1.227019 -0.869939 -1.600345  0.451397 -0.218017  0.162324 -0.308783  0.654016 -0.029884 -0.972366 -0.080070  0.073335 -0.446891  1.038965  0.572368 -0.565512  0.268521 -0.520677  0.865512 -1.220330 -0.243196 -0.700487  0.191638  0.006456  0.198218  0.331150 -0.230746 -0.326242  0.151806  0.501748  0.174865  0.014519 -0.012534 -0.023652 -1.122399 -1.118339  0.569631 -1.077709  0.386868  0.618248 -0.702477 -1.455159  0.878612  0.478571 -1.157951  0.244029 -0.002436 -1.152007 -0.837427 -0.397861  0.748264  1.228309  1.768133  0.300051 -1.370367 -0.383861  0.684321 -0.018770  1.170295  1.717549 -0.035488  0.609350 -1.160586  0.959051  3.931862  1.495417 -1.292412  0.081051  1.876663 -1.044317  0.206251  1.814056 -0.055569 -2.154458 -1.394650  0.315268  2.551379  2.429850  2.799446 -2.446602 -1.709247  1.108340 -3.736594  1.355142  1.227787  2.279445  1.387226  0.142500 -1.515563 -5.536463  0.257240 -1.804658 -3.431136 -0.300111 -3.297279 -1.506648 -3.096772  7.028090  3.721660 -2.419725  2.262314  1.763605  1.331129 -1.039337  5.339601  1.111966 -1.660676  0.670808  1.388594 -1.208464  3.080337  0.094845 -0.812318 -0.653537 -1.276121 -0.736690 -0.887114 -0.090420 -1.110443 -3.220657  0.857951  3.313513 -5.643809 -0.381613 -2.484921  1.241883 -0.554944  2.112672 -0.053438  0.248238 
 1.106509  0.072220  0.396532 -0.151185  0.238101 -0.190429  0.501647 -0.496727  0.219821  0.001010 -0.062711 -0.566758 -0.653979  0.059961  0.715301  0.534616  0.740346 -0.201053 -0.241047  0.409357  1.065409 -0.429845 -0.908024  0.121756 -0.819811  2.094221  1.316942 -0.733805 -0.341472  0.394654  0.447682 -0.902086 -0.279685  0.267858  1.422633  0.395431  0.101526  0.103232  0.901159  0.101184 -0.180438 -0.278879 -0.020338  1.226691 -0.486359  0.061101  0.581816  0.144618 -0.675833 -1.141340  0.260691  0.111302  0.051276  0.592411  1.248102 -0.971073 -0.458957  0.001143  0.064565  0.166414  0.424856 -0.021430 -1.763231 -1.044337  0.076931  0.389111 -0.392756  0.132847  0.164012  0.306293 -0.165133 -0.246854 -0.108765 -0.573954  0.409016 -0.410097  0.585848 -0.185776  0.089822 -0.002478 -0.009318 -0.331342 -0.787479 -0.228170 -0.815514  0.637996  0.196662  2.494331 -1.498631 -1.085237  0.482921 -0.461043  0.050126 -0.350221 -3.441371 -2.242061 -0.706101  0.643560  0.663281  0.038644  0.113158 -1.066739  1.043305  0.017293 -0.540226  0.763437  1.362779  0.440446 -0.261434 -1.830295  0.203671  2.293100  5.324533  1.333847 -6.412487  1.944540  0.550369  3.495562 -4.499216  1.837449 -2.826459  3.640956 -1.269594  0.535290  0.278562 -2.625000 -0.371737  0.179898 -2.260408  1.409682  0.474374 -1.471852  3.812564 -2.572137 -0.526211  0.288797  0.717474  0.294231 -0.741102  5.103417 -1.311224  2.589035 -2.587104  3.202627  0.522196 -2.197798  0.140856 -4.218383 -2.121606 -0.876764  1.383523  0.588779 -0.635449 -7.102997 -2.959447  1.275022  0.771839 -3.205500 -0.349505 -1.767896  2.700791  1.705956  3.559779 -0.886909 -0.007427 -3.587389  2.967379 -0.564294  1.056279  4.207165  0.311751  3.700155 -2.995487  0.316850 -0.375789 -0.927201  1.581056 
 1.047302  0.057169  0.363578 -0.219888  0.237286 -0.108457  0.463375 -0.456761  0.259274  0.046222 -0.091637 -0.494997 -0.571476  0.185320  0.703992  0.501134  0.712520 -0.168231 -0.095851  0.511489  0.924922 -0.340503 -0.906707  0.088160 -0.825637  2.048077  1.383953 -0.649619 -0.327804  0.392685  0.494613 -1.099768 -0.266395  0.262636  1.455732  0.439368  0.133197  0.109186  0.862626  0.104090 -0.181808 -0.333012 -0.113526  1.338702 -0.538575  0.080889  0.564503  0.266207 -0.630583 -1.046713  0.211782  0.106630  0.041126  0.625321  1.294035 -1.006899 -0.431968  0.008415  0.069299  0.203922  0.328102 -0.072491 -1.769980 -1.140473  0.154038  0.301797 -0.296867  0.151233  0.283934  0.316521 -0.181015 -0.249379 -0.141427 -0.603113  0.433773 -0.526323  0.553893 -0.266942  0.100761 -0.000221 -0.003705 -0.278387 -0.747966 -0.256158 -0.771306  0.608810  0.152149  2.798988 -1.692575 -1.253311  0.455304 -0.419675  0.027036 -0.453736 -3.465972 -2.185115 -0.684282  0.620138  0.593482 -0.223792  0.092612 -0.951707  1.219908 -0.035854 -0.565936  0.685384  1.286270  0.492928  0.407925 -1.735058 -0.122135  1.767577  4.996168  1.642411 -5.408271  1.263640  0.532491  2.981264 -4.146806  2.012451 -2.083071  2.925045 -1.571749  1.303888  0.938706 -3.010761 -1.445524 -0.521835 -2.001053  0.860802  1.036483 -1.187881  3.603424 -0.369407 -0.449502  0.347470  0.397931  0.300976 -1.777701  3.577929 -1.088310  0.728148 -2.926666  3.485130  1.789613 -0.918052  0.155436 -3.737440 -1.971758 -1.858572  1.061813  0.420810 -0.675721 -7.428203 -3.593329  1.142657  1.138982 -2.260221 -0.181108 -0.302218  4.105708  1.519615  1.586017 -2.072463 -0.224900 -2.643957  2.496604 -0.407905  2.358421  3.283316  0.392418  2.225001 -3.093480  1.055210  0.144230 -0.288186  1.404985 
 0.208241 -0.087746 -0.730015 -1.161420 -0.492204  1.059856  0.064051 -0.180689  0.259641  1.068057 -0.749177  0.688767  1.536336  2.761422  0.732293 -0.027241  0.518531  0.149856  0.345385  1.644064 -0.614667  0.654817 -0.667037  0.054365  0.022257 -1.388881  0.179028  0.367888  0.343356  0.055535  0.486870 -1.968142 -0.339735 -0.518702  0.697152  0.228768  0.778067  0.238075 -0.047158  0.269944  0.232395 -0.377521 -1.165175  1.750951 -1.378630  0.100921  0.309340  1.003374  0.095275 -0.123033 -0.329248  0.194138 -0.527670  1.517160  1.560958 -0.550396 -0.082427  0.144657  0.253097  0.383240 -0.211772 -0.349032 -0.649459 -1.649035  2.997010 -0.479416  1.179196  0.058474  1.589503  0.169048 -0.332328  0.197591 -0.420749 -0.704852  0.381120 -2.835145 -0.804263 -2.556030 -0.029180 -0.336475  0.302136 -0.087716 -0.217721 -0.413796 -0.228446 -0.748749 -0.471640  0.360227 -0.711458  0.997269 -0.348454 -0.689117 -0.317318 -1.468059 -1.064415 -0.010082  0.268346  0.133464 -0.212494 -1.738827 -0.216826  0.511097  1.989232 -0.183222 -0.002350 -0.010113  0.488351  0.773001  2.382116  1.829200 -0.210383  3.501362  1.955801 -1.758485 -3.516585  1.864008 -0.185542  1.408015 -0.664929 -1.722884  1.646239 -0.360909  1.490907  0.498687 -1.168695  1.853574 -1.566862 -2.133372 -0.020977  3.376992  3.953302 -0.726038 -3.299837 -0.335024  0.802905  4.006870  2.877359  0.480094 -3.616570  1.645084  0.323531  4.434431 -4.035345 -2.874204  0.727251 -1.378523 -1.224799 -0.924327 -2.182636  2.595415 -1.607952  0.315969 -0.506411 -4.183878 -0.354946 -0.345026  1.309618  1.890229  1.480620 -1.073655  1.149854 -0.265369  3.190329  0.159437  0.883074 -4.854246 -1.013339 -0.535191 -0.557105 -3.198205  0.770714  2.290020  3.517087 -1.084832 -3.528856 -3.671780 -1.269615 
 0.185923 -0.097355 -0.821823 -1.196703 -0.557875  1.101837  0.059387 -0.152183  0.217111  1.092652 -0.786459  0.786941  1.589291  2.793320  0.697918 -0.060629  0.519037  0.161471  0.245413  1.616326 -0.672035  0.673737 -0.640686  0.079873  0.063690 -1.724132  0.283320  0.434349  0.420794  0.003407  0.429728 -1.854866 -0.307113 -0.628353  0.616070  0.199917  0.814080  0.241152 -0.102576  0.281016  0.307619 -0.308252 -1.139501  1.599232 -1.421527  0.088915  0.252547  0.972233  0.154046 -0.080049 -0.341844  0.141108 -0.504177  1.483834  1.460481 -0.492647 -0.148020  0.165583  0.270052  0.374364 -0.203069 -0.342795 -0.544680 -1.576149  3.284361 -0.564509  1.239869  0.086900  1.560687  0.141420 -0.335845  0.228499 -0.424962 -0.689155  0.382424 -2.820863 -0.818235 -2.637138 -0.063999 -0.400479  0.352458 -0.094325 -0.192210 -0.405653 -0.201735 -0.843869 -0.510739  0.307527 -0.633332  0.976129 -0.447591 -0.781016 -0.364815 -1.383730 -0.862411  0.113448  0.362016  0.084611 -0.259866 -1.639003 -0.242597  0.604622  1.825830 -0.147834  0.076917 -0.018690  0.454357  0.755511  2.749931  1.348009 -0.117954  1.657463 -0.405835 -1.396586 -1.745785  0.756235  0.165797  0.603950 -0.059182 -2.062081  0.258808 -0.250069  0.922043  0.902752 -1.775210  1.739351 -1.266770 -0.980695  0.080322  3.103310  3.911612 -1.006298 -4.914019  2.547988  0.943935  2.829679  2.879706  0.393483 -5.776956  1.026382  0.006402  5.625037 -4.822609 -2.051071  2.451229  1.428627 -0.724650  1.145435 -2.699360  2.542125 -1.764941  0.217115 -0.508182 -3.443573  0.044170 -0.961929  2.257456  1.816373  1.677903 -0.117297  1.483516 -0.081858  1.385500  0.053239  0.620571 -4.272281 -3.057944 -0.687947 -0.821529 -2.660972  0.533176  0.965868  3.281728 -0.901277 -1.689820 -3.452991 -1.118958 
-1.522921 -1.092951 -0.466573 -1.005611 -0.044771 -0.305025  0.313836  0.773372  0.180516  0.891258 -0.049290 -0.404345  0.511425  0.083850 -0.954209 -0.724644  0.565326  0.380681 -0.100399 -0.619416 -0.739348  0.258041 -0.414802  0.023740 -0.044484 -0.839679 -0.497462  0.992840  1.145783 -0.824495 -0.144132 -0.326040  0.199653 -1.297031 -0.186538  0.038058  0.461842 -0.076437  0.381385  0.488955  1.049021  0.644711 -0.632561 -1.685935 -0.399535  0.541462 -1.584281  0.011240  0.409931  1.480223  0.462688 -0.418391  0.241254  0.276868  0.009906  0.676429 -0.520163  0.569231  0.361322  0.171835 -0.144742 -0.410831  1.283221 -0.216969  1.413631 -0.745013  1.997138  0.857628 -0.677691 -0.376130 -0.283351  0.377560 -0.270547 -0.042011  0.740244  1.454355  1.347071 -0.582255 -0.148393 -0.962662  0.724496 -0.028459  0.049237 -0.250851  0.111012  0.061586  0.679448  2.414190 -0.055251 -0.747946 -1.575177 -1.292699 -1.132367 -0.038315  0.956083  1.352194  0.477299 -0.927557 -0.664775  0.013102 -0.651825  1.740917 -1.124392  0.236329 -0.102275  0.140012  0.245755 -0.316341 -1.078909 -1.693037  0.016766 -1.046040 -0.292766  0.590802  6.976545 -0.893125  1.108448 -1.763763 -1.166174 -0.580138  1.396404 -5.715994  1.737572 -3.404443 -0.347678 -0.272482 -2.953847  4.216380 -0.413001  1.242114 -2.136102  0.409763 -1.230903  3.173022 -2.621975  2.856479  2.355013  0.083623 -2.415472  1.596541 -0.489426  1.695877  1.066374  0.498139 -1.229846 -1.387615  0.241463  2.601484 -0.250059 -1.508722 -0.139850 -0.406682 -0.447044  1.545794  3.281835  1.048109  0.504149 -2.383798 -0.394188  2.040555  2.388536 -0.337706 -3.925480 -1.649495 -0.386530 -1.175888 -6.075583  2.129429  0.058653  2.305650 -0.413446 -4.080370  1.963421 -0.990752  1.263775  2.064947  1.670526 
-1.705297 -1.208999 -0.344123 -1.001971  0.059156 -0.448912  0.339949  0.798736  0.174445  0.900311  0.018510 -0.446691  0.488170 -0.034303 -0.962048 -0.783031  0.563363  0.403727 -0.065809 -0.812879 -0.763691  0.217299 -0.398615 -0.033938 -0.066014 -0.699166 -0.616139  0.910616  1.096251 -0.801990 -0.160548 -0.308246  0.207988 -1.240311 -0.196815  0.014862  0.419047 -0.089680  0.435775  0.495050  1.020617  0.660956 -0.642955 -1.787042 -0.354402  0.623415 -1.727211 -0.055543  0.341379  1.616353  0.589145 -0.367307  0.276246  0.289687 -0.020057  0.817953 -0.404863  0.586086  0.337004  0.167963 -0.147545 -0.435871  1.389842 -0.191915  1.200589 -0.729119  2.080511  0.804246 -0.741056 -0.386823 -0.278347  0.369787 -0.264416  0.000149  0.761212  1.685615  1.473895 -0.480810 -0.028423 -0.904402  0.660305 -0.007116  0.048572 -0.255374  0.184897  0.248200  0.781301  2.254802 -0.292430 -0.808593 -1.530027 -1.127412 -1.090963 -0.030231  0.904785  1.272643  0.358104 -0.967846 -0.635201  0.079964 -0.670189  1.786558 -1.317256  0.169547 -0.221711  0.138574  0.249708 -0.407809 -2.254316 -1.356880  0.176437 -1.630967  0.479864  0.918527  7.463266  0.411762  1.100327 -2.458800 -1.281501 -0.717418  1.042118 -5.238042  1.773938 -2.555096  0.159594  0.350252 -2.121891  3.839469 -0.900385  1.789212 -3.857167  0.625534 -2.098928  1.201372 -2.682369 -0.686139  1.792790 -0.195901  0.246213  1.434242 -0.145495  2.287688  0.238544  0.073208 -3.388358 -0.279874  0.112826  2.995495  1.783715 -1.638370  1.591626  0.390597 -0.315564  3.133280  1.528454  0.985140  0.871990 -2.500388 -0.372338  0.512749  2.634570 -0.647252 -4.731650 -1.826385 -0.259900 -1.692089 -4.262204  1.837332  0.933588  1.613378  0.036666 -1.260390  0.748241 -1.053107 -0.138795  2.585809  1.577354 
 0.011174  1.826018  0.052491  0.488754  0.451366 -0.882143  0.819830 -0.147458 -0.785951  0.139953  2.128816 -0.508271  0.269052 -1.023289  0.221271 -0.040037 -0.297473  0.334925 -0.236104 -1.086222 -0.212839  0.140756  0.152695 -1.115390 -0.027612 -0.509237  1.546532 -0.763425  0.477812 -0.246845 -0.902452 -0.322428 -0.702477 -0.260297 -0.115301 -0.104782  0.108703 -0.016543  1.058363  0.151852  0.084593  0.374601  0.079650 -1.625170  0.567204  0.710378 -0.549952  0.277507 -0.456861 -0.129291  1.777036  0.007836 -0.226623 -0.347650 -1.224651  1.216884  0.413941  0.328257 -1.813906  0.436511 -0.487996  0.035569  1.124509  1.046960 -1.982264  0.235893 -0.566672 -0.316669  0.462832 -0.143079  0.167898 -0.268521 -0.221078  0.454571  0.560966  0.297623  0.330698  0.690173  1.068909 -0.110061 -0.375894  1.260043  0.088999 -0.674963  0.361410  1.738224 -1.221322  0.063725 -0.347199 -1.550666 -0.185842  1.174198 -0.055749 -0.155316  0.056346 -0.303513 -0.740139 -0.385700 -0.601579  0.695616  0.802035 -0.071637 -0.602446 -0.531119 -1.244635 -0.442575 -0.366932 -0.490786 -0.798264 -1.111146 -0.583200 -1.571422  2.890731  0.806490  0.520714 -2.945134  1.342896  3.638391 -1.209431  0.160545  0.521089  3.229633  0.687426 -0.452540 -3.392339 -1.313431  0.380339  2.295620  2.056146 -0.621509 -0.376610 -0.386204 -2.791447  0.680250 -0.014121  2.236006 -3.022777  0.029597  0.639522  4.480253 -1.494359  0.167317 -1.681168  0.160741 -0.837745  0.560252  1.049998 -0.914637 -0.717145  1.846332  1.971971  4.233272  1.663510 -5.042637 -1.448241 -1.125597 -2.137967  1.488767 -0.081040 -2.451652 -4.655564  1.289401  6.230560  0.367794 -2.229979 -0.871071  1.794658 -0.391572  0.488635  1.411031 -1.626084  2.051159 -2.195991  1.208843 -0.948662  0.024524 -1.439554 
 0.076578  2.044266 -0.002825  0.632579  0.427256 -0.872752  0.834624 -0.196246 -0.819036 -0.024538  2.308885 -0.444885  0.229028 -0.993151  0.302847  0.165739 -0.474758  0.311781 -0.297690 -0.874263 -0.062292  0.160937  0.202013 -1.047750  0.015093 -0.574079  1.731438 -0.778172  0.470041 -0.221647 -0.951170 -0.325577 -0.789357 -0.238824 -0.092305 -0.088128  0.110675 -0.007463  1.065414  0.127688  0.036675  0.340013  0.145356 -1.583866  0.604355  0.660136 -0.416949  0.339079 -0.492274 -0.311028  1.701757  0.020970 -0.251105 -0.287439 -1.312705  1.102132  0.402228  0.304646 -1.977018  0.436698 -0.593754  0.193005  0.984518  1.151011 -2.205822  0.296887 -0.830009 -0.368769  0.571470 -0.131767  0.227396 -0.353253 -0.214973  0.470643  0.493004  0.238793  0.254556  0.728634  1.011535 -0.077687 -0.386453  1.355308  0.079033 -0.696643  0.258100  1.652843 -1.513129  0.433133 -0.884708 -1.974107 -0.131333  1.140125  0.004094 -0.156739  0.047297 -0.338248 -0.692411 -0.328022 -0.563113  0.811626  0.898081 -0.284703 -0.463075 -0.415118 -1.132495 -0.481424 -0.436184 -0.425451 -0.275494 -1.249314 -0.456879 -3.590344  3.310383  1.536960  0.151248 -5.694933  1.583785  4.006755 -1.397388 -0.435710  1.300424 -0.079241  1.045989 -1.460156 -4.474231 -1.076764  1.576750  2.332030  1.981753 -0.953328 -0.017404 -0.479516 -3.282594  4.708461 -0.029102  2.695533 -2.628056 -0.426913 -1.388635  6.138408 -1.298150  0.433517 -0.336948 -0.197521  0.281083  0.465553  1.042925  0.458613 -0.856090  1.813394  0.998413  3.756130  1.781845 -4.695804 -0.639845 -1.311435 -0.559028  1.596768  0.091248 -1.239129 -5.170270  1.559473  4.106671  1.574812 -2.471921  0.578142  1.361995 -0.604146  0.509476  0.982151 -1.719459  0.831575 -2.317136  1.019396 -1.474691 -0.130125 -0.945556 
 0.182985 -0.167576  0.156948  0.005293  0.037868 -0.209971  0.204447 -0.216600 -0.040918  0.135676 -0.141703  0.229218  0.057224  0.016929 -0.037118 -0.129173 -0.252617  0.200548  0.027402 -0.033881  0.039096 -0.015973 -0.070891 -0.111122  0.057824  0.009956  0.188996  0.015731 -0.001926 -0.013372 -0.019215  0.241512  0.120961 -0.019050 -0.052966  0.139364  0.009899 -0.029868 -0.076293  0.054230 -0.071817  0.008707 -0.165727 -0.093003  0.021548  0.126131 -0.276774 -0.158183 -0.042651 -0.000886  0.209812  0.116779  0.320880 -0.213998  0.105136  0.067843  0.068919 -0.202310  0.334611 -0.051898  0.203160  0.140095  0.267842 -0.007000 -0.008385  0.501503  0.063241 -0.052684 -0.079337 -0.019753 -0.042281 -0.068621 -0.066341 -0.008215 -0.150082 -0.019932 -0.043397 -0.016785 -0.122451 -0.048662 -0.007793 -0.102895  0.109355  0.173863 -0.135538  0.130227 -0.003692  0.031076 -0.072336  0.756629 -0.030322  0.023200 -0.023092 -0.181551  0.130337  0.006172  0.021646 -0.052361  0.719122  0.172765  0.043895  0.979332 -0.053975 -0.034456 -0.018924 -0.052032 -0.024954 -0.151092  0.740580 -0.703394 -0.450436 -1.172969 -0.061297 -0.343007 -3.275305  0.776108 -0.288102  3.797794  1.461878  0.527173  3.926218 -0.436915  0.969925 -5.612434  1.948547  0.292668  3.190870  1.012487 -0.948701 -1.683372  0.353101 -0.061135 -3.077829 -0.624731 -0.824689  2.199258 -0.947163 -0.658595 -0.357481  1.476517  0.461271 -0.923131 -2.897235 -0.948771 -1.481620 -1.566851 -1.069707  0.987510  3.240046  0.486154 -1.361758  0.998230  0.281133 -1.582979 -0.788454  0.653813  0.747034  2.575334 -0.484331  2.069680  0.196666  0.507217  1.311770 -1.135344 -0.120595  3.649909  0.013597 -0.463663 -1.994698 -3.654992  0.227059 -0.272210 -1.130335 -1.081145 
 0.230977 -0.230305  0.212937  0.015299  0.053503 -0.269269  0.299434 -0.338076 -0.106977  0.139793 -0.173277  0.147835  0.064072  0.041247 -0.002508 -0.179780 -0.356623  0.259390 -0.006239 -0.084713  0.127897 -0.032025 -0.081471 -0.137762  0.112671  0.015145  0.235356  0.039230  0.015274 -0.008594 -0.023706  0.329521  0.095886 -0.081754 -0.090872  0.081157  0.023468 -0.025917 -0.088997  0.060149 -0.083175  0.035191 -0.276947 -0.115723  0.009264  0.189139 -0.405907 -0.253267 -0.052122  0.020053  0.429218  0.172639  0.476157 -0.374733  0.179988  0.134429  0.126773 -0.305541  0.476596 -0.181081  0.236963  0.183687  0.221041  0.030076  0.030763  0.509448  0.091050 -0.055638 -0.068108 -0.025397 -0.054816 -0.059015 -0.078087 -0.000972 -0.160960 -0.020936 -0.053667 -0.002617 -0.152135 -0.067352 -0.025145 -0.146565  0.138007  0.219488 -0.167678  0.173712 -0.034343  0.076401 -0.093950  0.814230 -0.026055  0.016196 -0.049632 -0.218907  0.179031  0.031332 -0.014004 -0.134547  0.719983  0.208264  0.036854  1.062751 -0.072768 -0.030815  0.002246 -0.055660 -0.028910 -0.156181  0.269922 -0.969405 -0.784230 -1.475429 -1.326804 -0.297819 -3.665121  0.874820 -0.232273  3.442028  2.455551  0.570821  2.762785 -0.069469  1.237603 -4.906368  2.005006  0.531946  3.241275  2.767766 -1.379480 -1.779793  0.555255 -0.118805 -2.907531 -1.011525 -0.926322  1.707259 -1.486040 -0.688929 -0.209917  1.331535  0.302660  0.880709 -4.281994 -1.096078 -0.324651 -0.987600 -1.403383  0.630714  4.005642  0.736499 -0.610031  1.847565  0.518592 -1.398581 -2.192608  1.096481  0.451823  2.441518 -0.466976  2.535631 -0.110971  0.720337  1.144174 -1.002550 -0.436772  3.552389  0.581905 -0.439931 -2.995558 -4.468587  0.322018 -0.525703 -0.839435 -1.150946 
-0.185034 -0.867710  1.171015  0.357377  0.459403 -1.077867  1.355075 -1.232194 -0.233583  0.517788 -0.735644  0.210282  0.226055  0.126297  0.023506 -0.847239 -0.855380  1.033370 -0.851098 -0.441339  0.164607 -0.239820 -0.758917 -1.058968  1.101109 -0.069922  0.150712  0.623338  0.296668 -0.777709  0.243524  0.503190 -0.412540 -1.144186 -1.091873 -0.222639  0.324758 -0.139376 -0.956219  0.184223 -0.005940 -0.110898 -0.997737  1.227807  1.282209  0.543533 -1.232511 -0.094026 -0.948416  1.555172  0.403725 -0.475442  1.351294 -0.243885  1.144925  0.163406  0.087739 -0.254918  1.588822  0.520271  0.932617  0.372968 -0.102710  1.208938 -0.288731  0.330134  0.545833  0.050028 -0.685240 -0.262690 -0.373149 -0.508366 -0.032217  0.186931 -0.154444 -0.048037 -0.135482 -0.002485 -0.428410  0.147496  0.105215 -0.578865  0.117422  0.825113  0.060650 -0.252101 -0.262655 -0.365545  0.061074 -0.521584 -0.684368  0.413147  0.153382 -0.350035 -0.425964  1.171848 -0.199537 -0.361163 -1.429213 -0.179071  1.521504 -1.247715 -0.228380  0.188535 -0.297250 -0.109052  0.023738 -0.032117 -1.673720 -3.271511 -1.786772 -2.425689  3.293404 -0.651831  1.101807  2.682599  0.738809  6.803093 -1.330300  0.140026  6.717551  0.255863  1.093391 -5.878393 -2.171912  1.781460  3.691797 -1.109068 -1.800039  1.730400  3.113376 -0.783711 -2.448999 -3.604064 -0.860726 -0.395776 -0.622713 -0.944473 -0.425771  1.899760  0.181449  0.803606 -1.267314 -1.756895  1.187221 -8.143852 -1.731204 -2.823070 -2.617178  1.989332 -0.092072  2.681271  1.007950  1.793440 10.263445  0.712127  0.496277  0.327074 -0.225554 -2.332998  2.669436  1.472223 -4.838808 -2.490476  0.153860 -0.601871  1.088010  1.363025 -0.672895 -2.513315  0.539205  0.338906 -0.239137  2.167763 
-0.271760 -0.892319  1.147588  0.348263  0.450052 -1.009601  1.207633 -0.925740 -0.235949  0.430028 -0.763981  0.167850  0.233999  0.122912 -0.003005 -0.756795 -0.737708  0.988590 -0.775278 -0.295514  0.229382 -0.223598 -0.784586 -1.060362  1.072042 -0.065025  0.105051  0.632468  0.299414 -0.815466  0.255396  0.392897 -0.441974 -1.150405 -1.154963 -0.254122  0.332016 -0.177249 -1.002093  0.204063  0.016947 -0.165693 -0.855324  1.114708  1.429975  0.561147 -1.130291 -0.031485 -1.021229  1.799930  0.094552 -0.628861  1.273678 -0.082734  1.202854 -0.075517  0.044938 -0.162439  1.494854  0.758875  0.919149  0.400154 -0.067622  1.228722 -0.445310  0.362755  0.535552  0.047642 -0.713685 -0.284067 -0.387008 -0.573058 -0.021296  0.194888 -0.136297 -0.054491 -0.123631 -0.018163 -0.450937  0.215968  0.122391 -0.511505  0.092839  0.932489  0.102749 -0.356977 -0.206070 -0.378089  0.107709 -0.481673 -0.779836  0.458415  0.168810 -0.273087 -0.573241  1.210194 -0.105443 -0.577321 -1.299940  0.166715  0.888082 -0.006589 -0.202087  0.218818 -0.352688 -0.108019  0.028767 -0.018911 -0.955544 -2.578667 -1.948664 -1.915359  3.972740 -0.593259 -2.696742  1.753098  0.164762  8.655765 -1.442838  0.463039  7.585443  2.493417  1.594526 -4.834654 -1.285689  1.971469  3.389834 -0.516571 -2.273077  1.341508  2.679429 -0.983012 -3.261048 -3.862548 -0.884289 -0.570135  1.029182 -0.973614 -0.528535  0.176242 -0.190582  0.512710 -3.621912 -2.240830  1.761018 -4.705323 -2.078432 -0.872600 -2.032377  1.630918 -0.250895  1.144054  1.132053 -0.290886  5.379687  1.260312  0.505488  0.197633 -0.305367 -2.198861  2.628221  1.815880 -3.245420 -1.094198  0.397375 -0.280003  2.468619  0.647553 -1.437425 -3.282429  1.049701 -0.811628  0.312742  1.616556 