  2.80014285  0.          0.         -1.40007143  2.42499485  0.   0.          0.          6.8589212 
  3.02641702  0.          0.         -1.51320851  2.62095402  0.   0.          0.          7.41317746
