 7.710900  0.000000  0.000000  0.000000  8.904000  0.000000  0.000000  0.000000 26.296000 
 7.710900  0.000000  0.000000  0.000000  8.904000  0.000000  0.000000  0.000000 26.296000 
 7.710900  0.000000  0.000000  0.000000  8.904000  0.000000  0.000000  0.000000 26.296000 
