-336.28970496
-324.88786843
-325.44898137
