 3.109570  5.597410  2.771860  1.850690  6.321660  0.736290  4.390820  7.802660  2.764760  4.383800  4.845560  4.760630  0.551250  8.550070  0.733660  0.548550  5.569360  2.737680  3.093540  7.066750  4.838200  3.123380  8.568410  0.743650  0.547240  7.054550  4.737490  4.408090  6.334930  0.735760  1.844220  7.792510  2.737680  1.806050  4.829260  4.733810  4.405930  1.883460  0.735760  3.121450  4.118100  0.742600  3.108800  1.144250  2.772650  0.543700  1.118880  2.738470  3.090450  2.616890  4.833470  4.391900  3.354140  2.761080  4.376400  0.388130  4.763780  1.849380  3.339800  2.744250  1.794020  0.371830  4.733810  0.532510  2.602370  4.736960  0.555570  4.098240  0.733130  1.845300  1.871980  0.735760  6.991240  6.321660  0.736290  5.691800  8.550070  0.733660  5.689100  5.569360  2.737680  5.687870  7.054550  4.737490  6.984760  7.792510  2.737680  6.946670  4.829260  4.733810  5.684240  1.118880  2.738470  6.990010  3.339800  2.744250  6.934570  0.371830  4.733810  5.673140  2.602370  4.736960  5.696120  4.098240  0.733130  6.985840  1.871980  0.735760  1.910610  4.783590  7.460170  4.585980  4.781360  7.546690  0.660590  7.010920  7.529860  1.893870  6.258180  7.479630  1.895800  0.341380  7.455440  3.381150  7.047610  7.523020  4.575340  6.265210  7.550370  4.579890  0.330690  7.547220  0.665140  8.491830  7.531170  0.691590  2.560170  7.514870  1.937210  1.814100  7.447030  3.386780  8.449810  7.529070  3.404900  2.593910  7.523020  4.598780  1.813120  7.547740  0.677560  4.036090  7.522230  3.398420  3.993530  7.529600  7.051160  4.783590  7.460170  5.801220  7.010920  7.529860  7.034420  6.258180  7.479630  7.036430  0.341380  7.455440  5.805690  8.491830  7.531170  5.832140  2.560170  7.514870  7.077760  1.814100  7.447030 
 3.962800  5.527460 26.220160  2.044150  6.991160  0.458940  5.098240  6.181000  4.299200  6.474940  2.594320  5.125170  0.722050  8.684550  1.356470  2.143240  7.550430  2.830830  1.919320  6.175080  4.677670  1.893710  4.348670  0.017970  7.193050  6.314220  5.921850  5.873070  1.410290  0.606700  5.499770  0.874210  3.032890  0.855300  2.217460  5.103240  4.194430  7.827190 25.492980  2.780370  0.798470  0.314050  4.224900  3.284790  3.367470  3.160960  0.555150  2.868210  1.755370  3.550620  3.313510  3.152240  4.085940  5.515590  1.455060  8.643080  5.600420  3.959250  2.890540  1.150920  0.116110  0.851290  3.136840  6.509810  0.310300  5.073070  1.060290  5.527990  2.095560  0.558440  8.602490 25.311910  6.969600  4.011540  0.632200  6.697980  6.600390  0.393600  4.747070  7.554390  1.641880  4.463730  8.325880  4.398800  7.508270  7.240540  3.337860  3.753330  6.651140  6.244360  6.661530  3.124600  2.733440  7.377710  4.709680  4.099920  3.394810  1.590820  4.861450  3.264940  5.374410  2.864720  5.540310  5.073890  1.961480  0.456300  1.927640  0.610630  7.410570  7.202650  8.050480  2.381760  7.425240  7.288660  6.130720  0.610810  7.992140  7.529870  8.716300  7.960130  7.293840  2.820760  7.930130  1.022370  0.579380  7.888130  2.245830  8.767140  7.533080  2.096440  2.708970  7.827170  6.096120  1.967840  7.942450  6.067460  4.898500  7.822990  7.402720  4.275480  7.720970  0.852800  2.046720  7.770720  1.092070  5.073080  7.435390  2.260940  4.173220  7.588940  6.019130  6.638130  7.826240  1.024240  6.538950  7.751350  4.904520  7.460320  7.524770  3.564280  0.456850  7.693970  4.909710  8.850800  7.949590  4.825220  2.638260  8.044040  3.590690  1.864620  7.846350  3.625650  4.705440  7.248810  4.711010  4.006200  7.934780 
 3.960580  5.521460 26.224610  2.049790  6.987060  0.463210  5.083110  6.187520  4.305310  6.469440  2.596310  5.131640  0.714780  8.672290  1.355170  2.137460  7.550480  2.831930  1.929800  6.171060  4.662850  1.900160  4.357120  0.022610  7.195850  6.316450  5.927990  5.880390  1.393030  0.606110  5.496220  0.888630  3.043000  0.856230  2.206000  5.099810  4.181210  7.816140 25.470850  2.778240  0.787020  0.311990  4.230360  3.284550  3.369510  3.155330  0.560200  2.864190  1.765970  3.564960  3.305190  3.151760  4.088060  5.510070  1.444860  8.645950  5.611080  3.963280  2.886280  1.148980  0.111980  0.851160  3.141560  6.521220  0.303980  5.066480  1.055700  5.527880  2.093660  0.558440  8.601510 25.312680  6.971840  4.017270  0.623900  6.701660  6.591980  0.398750  4.739070  7.562020  1.644360  4.471300  8.337990  4.400230  7.512300  7.238860  3.337670  3.739180  6.664600  6.247670  6.669600  3.143980  2.733770  7.390890  4.734010  4.115860  3.404990  1.586890  4.852410  3.257170  5.377220  2.864850  5.540400  5.077110  1.971360  0.448290  1.903080  0.606300  7.398360  7.166610  8.043510  2.382420  7.401190  7.316940  6.134280  0.592780  8.006080  7.510840  8.689380  7.944600  7.293880  2.808420  7.951620  1.025540  0.600940  7.856230  2.252080  8.765840  7.501920  2.100910  2.711190  7.815960  6.131970  1.983860  7.921400  6.040550  4.903420  7.811820  7.373060  4.245480  7.749670  0.857180  2.027650  7.816280  1.091980  5.069170  7.461690  2.268970  4.179440  7.574020  6.015510  6.642070  7.805910  1.016050  6.526900  7.751520  4.893470  7.450810  7.506950  3.595950  0.481490  7.724030  4.921190  8.814890  7.946840  4.838150  2.655130  8.023180  3.611670  1.861240  7.840440  3.600560  4.682690  7.240300  4.722340  4.067090  7.930400 
 3.961140  5.475260 26.275010  2.105290  6.951020  0.475330  4.986580  6.211270  4.346340  6.380190  2.634020  5.173160  0.643880  8.553920  1.333460  2.100440  7.543200  2.844050  1.992710  6.135850  4.567470  1.938370  4.413590  0.074640  7.216330  6.345640  5.960910  5.921190  1.248170  0.607440  5.468270  1.024980  3.094370  0.906080  2.108430  5.065430  4.077200  7.734830 25.317160  2.763960  0.693270  0.300730  4.290340  3.282620  3.404010  3.102930  0.631740  2.798330  1.839110  3.655560  3.243600  3.147070  4.103490  5.434180  1.371770  8.666690  5.669510  3.990440  2.855020  1.115340  0.098030  0.870500  3.195210  6.627480  0.234990  5.032740  0.990430  5.517780  2.063580  0.561430  8.595210 25.329680  7.005430  4.059630  0.536400  6.736450  6.533210  0.442850  4.674760  7.622920  1.665590  4.504590  8.411710  4.431290  7.523700  7.227970  3.349470  3.613240  6.738060  6.276480  6.736540  3.262240  2.733930  7.498800  4.933420  4.245670  3.480210  1.569990  4.805620  3.222340  5.407730  2.850210  5.523150  5.123150  2.059560  0.406310  1.736300  0.572380  7.394070  7.166340  7.828220  2.034300  7.194640  7.532140  6.204850  0.442680  8.043050  7.385360  8.599840  7.884860  7.489480  2.756640  8.007430  0.931900  0.480910  7.645450  2.360260  8.766660  7.541170  2.334580  2.704390  7.769430  6.134500  2.000310  7.927200  6.073390  5.068290  7.758530  7.291320  4.242470  7.968280  1.075070  2.018980  8.109340  0.828750  4.858900  7.838360  2.137400  4.103700  7.512690  6.150980  6.374780  7.666320  0.980510  6.372910  7.671510  5.005950  7.235440  7.456770  3.682590  0.609830  7.851800  4.922540  8.665040  7.832490  4.915050  2.852400  7.811720  3.593550  2.168340  7.838530  3.518200  4.724540  7.284800  4.805310  4.320490  7.689640 
