 0.082834 -0.027745  0.022772 -0.026279  0.002595 -0.101802  0.018992  0.011638  0.060261  0.132846 -0.064990  0.321182  0.015157 -0.036214 -0.114512 -0.022506 -0.017350  0.054073  0.060631  0.003410 -0.228193  0.029234 -0.046460 -0.071775 -0.050862  0.016677  0.018918 -0.005386 -0.035181 -0.036155  0.002824  0.050343  0.155163  0.087351  0.008718  0.199772 -0.009085 -0.036913 -0.051056  0.035953 -0.062179 -0.071194  0.060912 -0.024733  0.011232 -0.003939 -0.014864  0.044195  0.019659 -0.059965 -0.159412  0.019023  0.012160  0.059339  0.010503 -0.024322 -0.055389 -0.024369  0.050224  0.133079  0.109618  0.046570  0.232955  0.027595 -0.006620  0.063184  0.008745 -0.046890 -0.105390 -0.010616  0.003202 -0.085179 -0.051146 -0.018307 -0.138480 -0.006521 -0.018735 -0.049716 -0.049982  0.006674  0.039067 -0.035113  0.069970  0.008947 -0.074623  0.021528  0.040680 -0.041258 -0.057675  0.563421 -0.048425  0.021237  0.049113 -0.111138  0.045968 -0.022988  0.090713 -0.006050  0.111106  0.027695  0.122341  0.455475 -0.012679 -0.038221 -0.064001 -0.045639 -0.031401 -0.137661  1.695423  0.613531  0.478545 -1.406639  1.837206 -0.467124 -0.750784 -0.182535 -0.345274  2.484569  0.033618  0.308614  2.695886 -0.488905  0.352785 -3.776325 -1.800361 -0.150031  0.427652 -1.483381  0.064547 -0.057726  0.184028 -0.028295 -1.028405  0.392707 -0.602612 -0.409106 -0.557492 -0.700483  1.663224  0.436354  0.723795 -3.707121  2.075240 -0.222856 -4.242449 -2.494450 -0.430924  0.795931  0.574683 -0.089443 -1.890979 -0.001942 -0.310653 -1.142344  2.241842 -0.187415  2.373060  1.253458 -0.409888  0.528707  0.836351 -0.170377  1.699603 -0.863443  0.508967  2.381287 -0.596261  0.436919  0.545529 -0.391112 -0.148973  0.700588 -2.571638 -0.590133  0.225564  1.042278  0.741468 
 0.606730 -0.056298  0.759756  0.536447 -0.258206 -0.954385  1.027041 -1.278570 -0.349796 -2.651854  1.207418 -0.328114 -0.536503 -1.063448 -0.953352  0.181393 -0.742212  0.287330 -0.709006 -0.213946  0.498531 -0.414313 -0.319784  0.797496 -0.098760  0.406779 -0.462716 -0.458637 -0.436055  0.243181 -0.037704  0.915565 -1.193790  2.389290 -0.674244 -0.090393 -0.032099  0.274344  0.778246  0.089887 -0.191942  0.235377  0.795119 -0.159703  1.081778 -0.396823  1.798173 -1.607382 -0.139180 -0.602279 -0.092989 -0.035827 -0.046306 -1.485299  0.212516 -0.141566 -1.180340 -0.278023  0.133671 -0.994262  0.680524  1.090656  1.393218  0.823763 -1.096809  0.647963 -1.300770 -0.496941 -0.629388  0.109941  0.070414  0.605122  0.897990 -0.025175 -1.343844  0.335993  0.229977  0.153756 -0.130673  0.107143  0.194735 -1.072047 -0.764838  0.976901 -0.814905 -0.019902  0.544461 -0.138020 -1.237454  0.616328 -0.037434 -1.678421 -0.455594  0.387192  1.154504  0.653762 -0.098069  0.494343  0.929630  0.728586  0.451699 -0.405116 -0.954939  1.020907  0.753863  0.864765  0.761576  0.065531  0.987131  2.015220 -1.726218 -5.445302 -3.371542  0.675502  3.276421 -2.826740  0.318274 -3.405782 -0.145542  0.786698  2.224488 -1.335405 -1.771250 -2.252870 -0.231352 -0.826698  1.692574  1.030274  1.404032  3.733037  0.886297 -0.800984  0.546709  4.380386  1.118316 -0.226521  1.312380  0.008148 -1.342451  0.579521  0.712637  1.035603 -0.189451  1.604393 -2.884921 -1.289287  2.835048  0.308127  0.168153 -1.201914  1.955191 -3.566665 -0.009710  1.018646 -0.789133 -2.049581  2.160902 -0.446220  1.230064  1.346293  5.238949  1.152086 -2.487536 -4.262189 -2.571532 -1.676451 -1.767322 -0.678948 -3.082273  1.896836  0.292588 -1.101347 -0.875735  2.359440  3.291937  4.964894 -2.557087 
 0.673023 -0.030666  0.752050  0.536809 -0.238008 -0.975012  1.028490 -1.284620 -0.337244 -2.542991  1.179866 -0.372623 -0.568509 -1.067722 -0.843340  0.243640 -0.640971  0.259161 -0.768835 -0.200851  0.625579 -0.464211 -0.356890  0.779381 -0.085209  0.419484 -0.497398 -0.553696 -0.437506  0.251893 -0.030765  1.001841 -1.252311  2.318800 -0.584611 -0.216007 -0.027064  0.262292  0.824604  0.095489 -0.193300  0.235135  0.799332 -0.114289  1.024871 -0.399067  1.709856 -1.623960 -0.240450 -0.724519 -0.004728 -0.044083 -0.088193 -1.637041  0.210761 -0.141721 -1.220074 -0.252527  0.115480 -0.967034  0.734108  1.058141  1.229626  0.841483 -1.049345  0.723833 -1.332948 -0.482206 -0.655736  0.120801  0.071213  0.588040  0.867879 -0.064189 -1.272784  0.316766  0.257801  0.160786 -0.112532  0.089909  0.151154 -1.126968 -0.841273  0.980944 -0.853823  0.008931  0.568386 -0.248847 -1.430750  0.293705  0.029224 -1.653538 -0.338388  0.331620  0.940284  0.549513 -0.130645  0.552524  0.998039  0.877832  0.432327 -0.492618 -0.933817  1.018023  0.688691  0.883351  0.898822  0.040393  1.051199  2.977700 -1.700612 -5.523464 -2.545962  0.663246  3.468552 -2.023179 -0.017744 -2.521006  0.689063  0.807632  2.824635 -1.005053 -1.667476 -2.554358 -2.253836 -0.474265  2.107173  1.328377  1.939128  3.412173  0.618219 -0.524827 -1.449229  2.494279  1.473727  0.120304  1.241765  0.096715 -0.762536  1.400995  0.475015  1.432425  1.139281  1.038010 -3.084592 -1.401990  2.608968 -0.556647 -0.563097 -0.730868  1.809082 -4.158701  0.013254  1.240640 -1.029201 -1.831698  2.385493 -0.538208  1.275956  0.198544  3.056326  0.370743 -2.527643 -2.650214 -2.237073 -1.164174 -0.822960 -0.699567 -2.831814  3.049570  0.422489 -0.389858  0.170773  2.089696  3.098430  2.433077 -2.414234 
 1.179868  0.169302  0.646763  0.464266 -0.026123 -0.904395  0.886067 -1.105013 -0.280347 -0.998638  0.550346 -0.452258 -0.843605 -0.913248  0.192647  0.651610  0.328346 -0.093719 -1.135328 -0.125170  1.685747 -0.794614 -0.671010  0.581321 -0.070102  0.979378 -1.598714 -1.174404 -0.484938  0.312165  0.055539  0.968287 -1.086110  0.947681  0.286652 -0.312752 -0.009959  0.169776  1.021116  0.120323 -0.197606  0.172847  0.720071  0.270643  0.399112 -0.306260  0.990670 -1.322307 -0.839539 -1.551129  0.432514 -0.198408  0.134460 -0.497810  0.613904  0.050364 -0.946740 -0.094195  0.075078 -0.512562  1.033397  0.628096 -0.380559  0.383264 -0.569093  0.878018 -1.263998 -0.275140 -0.729459  0.181936  0.017725  0.255418  0.388990 -0.209962 -0.433514  0.170111  0.477252  0.179253 -0.000212 -0.006005 -0.019188 -1.181871 -1.129337  0.645627 -1.069643  0.340727  0.636254 -0.912888 -1.413292  0.723381  0.449398 -1.226786  0.225859  0.011493 -0.910596 -0.668973 -0.361081  0.748172  1.232359  1.747756  0.309757 -1.288437 -0.469953  0.738467  0.048290  1.147581  1.679742 -0.046687  0.419106 -1.422912  0.315522  4.865837  2.686554 -1.518213 -2.686097  2.632587 -1.063053  2.100170  1.244705 -0.123035 -2.694632 -0.597948  0.225336  2.657263  2.072811  2.534190 -2.809497 -1.887642  1.531384 -3.894587  1.117259  1.380703  2.461314  0.089190  0.456606 -0.785410 -7.604574  0.655673  1.419353 -1.225029 -0.538201 -2.377307 -1.671870 -3.255256  4.040927  1.739901 -1.836455  1.703932  1.439243  1.317039 -0.192397  7.680868  0.936365 -3.449110 -0.304538  1.614606 -0.836661  2.256326  0.200228 -1.687567 -0.756344 -1.527380  0.517621 -0.068055  0.124502 -1.094698 -1.517598  0.605277  3.817169 -5.231353 -0.179475 -2.511571  1.981565 -0.581834  1.562027 -1.792590  0.007357 
