-336.28970496
-336.34143839
-325.71590848
-325.03476433
-324.68712957
-324.88786843
-325.44898137
-326.01807189
-326.43278944
-326.73040844
-326.90716147
-326.84993272
-326.45596273
-325.86237871
-325.42960927
-325.25620936
-325.20342059
-325.41075369
-325.84594887
-326.21941066
-326.39035975
-326.38270490
-326.27043594
-326.04252698
-325.59192880
-325.01722035
-324.77158893
-325.13309651
-325.62749299
-325.67794766
-325.47098999
-325.52059987
-325.82337007
-325.94879773
-325.66998298
-325.26223876
-325.04209452
-324.82282050
-324.37325694
-323.96477669
-323.85053456
-323.90679410
-323.91042521
-323.84007950
-323.95267547
-324.37664967
-324.91623453
-325.31481967
-325.48075429
-325.47806465
-325.36929782
-325.21916060
-325.14294153
-325.25598562
-325.57718899
-325.89260847
-325.96766774
-325.94884123
-326.08920074
-326.28923446
-326.27894081
-325.88205556
-325.19934390
-324.69340685
-324.57920216
-324.64164497
-324.86165936
-325.38625533
-325.93635899
-326.09204786
-326.08349973
-326.28062099
-326.42177410
-326.21485465
-325.83955524
-325.54944357
-325.36902288
-325.31241742
-325.43873240
-325.63277281
-325.61960726
-325.27460179
-324.86395622
-324.76632246
-324.91749117
-325.14203572
-325.40317228
-325.36145802
-324.81544041
-324.41621248
-324.65714376
-324.78005631
-324.34288550
-323.74932348
-323.36944138
-323.26661694
-323.42030296
-323.93959023
-324.77548399
-325.48092781
-325.67861223
-325.48460601
-320.73401143
-320.85863194
-320.50888554
-320.07435990
-319.71497450
-319.31141045
-318.75622518
-318.17713597
-317.90012985
-318.13976760
-318.45303822
-318.24633093
-317.58913259
-317.13628840
-317.22490211
-317.41499041
-317.22439235
-316.63683867
-316.01588188
-315.69957790
-315.56715858
-315.16988478
-314.40601365
-313.97465552
-314.20507416
-314.45964258
-314.53935870
-314.65673174
-314.91865518
-315.49466695
-316.19141055
-316.51495103
-316.16376605
-315.24224620
-314.24379375
-313.56709630
-313.67775149
-314.69518104
-315.66546339
-315.80369460
-315.09372853
-314.19213685
-314.15710339
-315.16792341
-316.39774990
-317.15449436
-317.33913320
-317.17539659
-316.74710217
-316.25606786
-316.14579295
-316.48379830
-317.01280351
-317.48228439
-317.78044073
-318.04012509
-318.37597703
-318.53559518
-318.37000031
-318.24655043
-318.52659823
-318.88107147
-318.73284576
-318.15651832
-317.68516841
-317.66236855
-317.95263551
-318.23422959
-318.41763601
-318.57772174
-318.68843461
-318.51322737
-317.87133917
-317.02646479
-316.60752003
-316.74061175
-317.01765143
-317.09548098
-316.89114580
-316.63443992
-316.64267308
-316.39574545
-316.32665934
-317.77474342
-319.51475645
-320.14377718
-319.89187994
-319.68071791
-319.45043840
-318.47185650
-317.11669131
-317.07084142
-318.20292977
-319.29367676
-319.88299514
-319.98811412
-319.98170037
-319.99618004
-319.68600251
-319.04227737
-318.52919544
-318.66391597
-319.42531297
-320.23746946
-320.69349577
-320.78363349
-320.61637250
-320.27487975
-319.81239199
-319.19071868
-318.40515762
-318.08645000
-318.96966190
-320.27320917
-321.07803261
-321.39060093
-321.34830860
-321.12097755
-321.00103278
-320.92753028
-320.46898350
-319.76502209
-319.65957884
-320.12075760
-320.57523864
-320.76578874
-320.57214575
-320.06638414
-319.82373624
-320.23199080
-320.51349034
-320.72297387
-321.30169854
-321.92209204
-322.40328887
-322.67416584
-322.36465495
-321.33774071
-320.33035882
-320.29745159
-320.98024977
-321.60484009
-321.86815209
-321.78796245
-321.49288050
-321.14279236
-320.89808809
-321.01167445
-321.39855577
-321.68576730
-321.86271490
-322.09355790
-322.42468086
-322.59089306
-322.20435460
-321.50933667
-320.97817718
-320.76696989
-320.93475237
-321.39558223
-321.58695779
-321.07904724
-320.37489478
-320.22420646
-320.40816311
-320.28125815
-320.03211315
-320.05604190
-319.85490791
-319.38448636
-319.97317183
-321.29188530
-321.84438052
-321.63911628
-321.21620379
-320.84285895
-320.66105571
-320.74944454
-320.97382137
-321.14520984
-321.25457442
-321.34586078
-321.49104567
-321.77294494
-322.00162453
-321.99748716
-322.15876474
-322.62338180
-322.74247881
-322.33882320
-321.97464476
-322.00424665
-322.16734620
-322.39396339
-322.78326593
-323.04453440
-322.91304270
-319.83439785
-319.32455774
-319.42149456
-319.73960292
-319.86927017
-319.83666796
-319.93092467
-320.04756700
-319.65914308
-318.99871426
-318.96313510
-319.58264913
-320.25387558
-320.36440463
-319.62020480
-318.53453010
-318.09809325
-318.64916359
-319.42391962
-319.71828311
-319.77167058
-319.68794660
-319.33225352
-319.27711620
-319.67241206
-320.04079913
-320.25011592
-320.55114168
-320.99747441
-321.07935094
-320.70774987
-320.32137008
-320.12622376
-320.25744104
-320.72096644
-321.17193852
-321.42473165
-321.46772084
-321.29182340
-321.07075236
-321.09950828
-321.23791565
-320.99693093
-320.37657640
-319.86551874
-319.69851132
-319.66752722
-319.65075710
-319.94304221
-320.50769112
-320.69889563
-320.43486024
-320.42874874
-320.89712716
-321.21551404
-320.93563401
-320.30132442
-319.93287317
-320.07580843
-320.51668904
-320.98135791
-321.31926516
-321.54957491
-321.70502281
-321.63039190
-321.33758176
-321.06405200
-321.00921025
-321.27543615
-321.74961920
-322.23096688
-322.48136285
-322.31166106
-321.87420215
-321.67194531
-321.98809776
-322.59713742
-322.99942667
-322.98449349
-322.68305244
-322.37676765
-322.20734216
-322.05701103
-321.89252202
-321.90162801
-322.11322576
-322.27016884
-322.29424535
-322.40497831
-322.73491551
-323.16926710
-323.45995882
-323.42588071
-323.13358019
-322.85143852
-322.69820195
-322.55556272
-322.25738292
-321.78693279
-321.41463377
-321.28994227
-321.47796377
-321.86755854
-322.14331012
-322.16435319
-321.93816553
-321.39341719
-320.56367914
-320.04524086
-320.31943009
-320.94928180
-321.22321688
-320.80522689
-319.91947187
-319.25139018
-319.31545151
-319.80787758
-320.13598307
-320.21669265
-320.35260278
-320.56820888
-320.32866647
-319.42745719
-318.53869546
-318.31174068
-318.70271602
-319.16053166
-319.23271763
-319.08850941
-319.10559071
-319.15158813
-319.06536424
-319.11991353
-319.32628369
-319.39156598
-319.17615405
-318.74160268
-318.46940496
-318.67114227
-319.27645966
-319.87245145
-319.90091446
-319.34699560
-318.73026540
-318.59042907
-318.96715570
-319.26748849
-319.05854600
-318.50920528
-318.21154881
-318.50135650
-319.08283297
-319.62959597
-320.03445978
-320.22309274
-320.02175078
-319.30894522
-318.69714328
-318.99459617
-320.02538829
-320.91827465
-321.11901333
-320.72065755
-320.16897664
-319.93735548
-320.27407146
-320.98497759
-321.53049372
-321.64420572
-321.52127872
-321.22857529
-320.82334797
-320.71784422
-321.16802789
-321.80568060
-322.07849649
-321.75475989
-321.12149611
-320.89674620
-321.32502714
-321.80400066
-321.85174045
-321.61820999
-321.58098169
-321.79800829
-321.88081461
-321.75660418
-321.53365778
-321.33483741
-321.19846347
-320.83882489
-320.43309868
-320.60842292
-321.38676999
-322.10379196
-322.20987061
-321.76614245
-321.22362212
-320.84616740
-320.74334707
-321.34141436
-321.04092138
-320.87930648
-321.10473972
-321.59879539
-322.14188000
-322.53875362
-322.52122541
-322.01430317
-321.38781587
-321.04045552
-321.02617561
-321.23544353
-321.50220326
-321.71488013
-321.95097361
-322.32497319
-322.72438568
-322.96936202
-322.97611398
-322.60775199
-321.86351863
-321.24084985
-321.15980028
-321.32960896
-321.42821456
-321.43986766
-321.48896795
-321.67537661
-321.92544210
-322.03898221
-321.94055569
-321.71117696
-321.41572837
-321.12914705
-320.98852176
-321.01317250
-321.00983197
-320.79050119
-320.40381256
-320.17082498
-320.33177430
-320.60166766
-320.57557977
-320.53327427
-320.76412630
-320.84060104
-320.59908913
-320.30310961
-320.07381936
-319.73834966
-319.28059196
-318.96844047
-319.02172047
-319.44901687
-320.12917021
-320.84991553
-321.28354133
-321.19071397
-320.75437428
-320.38575925
-320.29324321
-320.63895424
-321.48119048
-322.47148373
-323.17633189
-323.40849820
-323.14608812
-322.57659810
-322.12035474
-321.95239114
-322.01499614
-322.23306517
-322.46489277
-322.63015662
-322.74951311
-322.81354456
-322.81767102
-322.87472576
-323.07986897
-323.30959059
-323.36519310
-323.20726730
-322.94246612
-322.77816130
-322.87095781
-323.06667611
-322.99739748
-322.47282357
-321.71139663
-321.16727688
-321.08924734
-321.40114358
-321.92335122
-322.41612122
-322.58678311
-322.30370830
-321.71095371
-321.09440666
-320.79676926
-321.05152740
-321.60511974
-321.82242052
-321.33823362
-320.51640564
-320.17867989
-320.68634666
-321.64889346
-322.38048771
-322.49813954
-322.18734362
-321.81715356
-321.54366617
-321.38734933
-321.36874954
-321.50197640
-321.72401531
-321.79781952
-321.52460342
-321.10824646
-320.98597545
-321.34290016
-321.98660714
-322.57766946
-322.88910608
-322.92941986
-322.79778046
-322.53732576
-322.17850879
-321.77084212
-321.40048862
-321.24252744
-321.45015945
-321.91381799
-322.27638191
-322.28121764
-322.03425465
-321.83103430
-321.73743859
-321.65908733
-321.72705971
-322.12060696
-322.67846444
-323.07973668
-323.20631116
-322.98204688
-322.34729517
-321.65063778
-321.35308490
-321.22306326
-321.16534324
-321.84539025
-322.79469492
-322.97123749
-322.45225783
-322.27087085
-322.82424818
-323.50652335
-323.94148298
-324.04830222
-323.91920677
-323.74952608
-323.62052559
-323.47524567
-323.28950329
-323.11944971
-322.95252938
-322.69906649
-322.40184324
-322.24043478
-322.41036667
-322.90907283
-323.32006836
-323.24323165
-322.72229993
-322.18429338
-322.06807311
-322.32993062
-322.57961556
-322.51202145
-321.98605995
-321.07996202
-320.12977054
-319.51302273
-319.42096416
-319.73779341
-320.04736561
-320.07335673
-320.11185753
-320.60441950
-321.24369214
-321.48014356
-321.30210159
-321.15261872
-321.39068342
-321.63496435
-321.11931623
-319.88127521
-318.99467844
-318.97916712
-319.29354398
-319.55611572
-319.88870052
-320.40210748
-320.94148789
-321.27515799
-321.30920130
-321.22163091
-321.35329180
-321.70195747
-321.87034124
-321.65030587
-321.20315828
-320.84952930
-320.88579304
-321.35707247
-322.05724776
-322.69409405
-322.96832662
-322.84838113
-322.77536204
-323.14707540
-323.79670230
-324.23424924
-324.07351845
-323.28863878
-322.21167115
-321.28010418
-320.79135558
-320.84301998
-321.35928821
-322.04931947
-322.51826040
-322.61984980
-322.57744586
-322.49501868
-322.10999671
-321.41320337
-320.76208210
-320.37409782
-320.18908471
-320.01691910
-319.74305211
-319.41772048
-319.22738425
-319.33902980
-319.68056989
-320.11720012
-320.65688193
-321.31700163
-321.87516183
-322.06433923
-321.98180835
-321.79635099
-321.40210039
-320.74087796
-320.22585212
-320.18770483
-320.35071647
-320.49137277
-320.72364564
-321.12432084
-321.43672101
-321.35602928
-321.15223760
-321.41330688
-321.86689035
-321.93745979
-321.63606271
-321.34233049
-321.39788347
-321.87337470
-322.54211991
-322.97520678
-322.83194583
-322.27011658
-321.98567259
-322.34400888
-322.88026593
-323.08367712
-322.86102576
-322.36209450
-321.75478869
-321.16757965
-320.73040906
-320.58914288
-320.79074138
-321.17672270
-321.41817016
-321.21573379
-320.66867439
-320.52469092
-321.17239542
-321.76084573
-321.52771835
-320.67799430
-319.90714208
-319.67394100
-319.93525601
-320.40408782
-379.47172528
-379.25536208
-379.23640798
-379.71514922
-380.10672866
-379.95997420
-379.66696732
-379.61640389
-379.83951425
-380.21032974
-380.49722216
-380.41568150
-380.12353289
-380.20593162
-380.68927046
-380.72102303
-380.33797891
-380.48056054
-380.99081225
-381.03246600
-380.48620328
-380.11443876
-380.32794090
-380.56132724
-380.32584454
-379.73225706
-379.13588315
-378.84583872
-378.92118713
-379.07858897
-378.98693345
-378.64681891
-378.62176174
-379.10331888
-379.34382735
-379.00909228
-378.59892248
-378.82983177
-379.54271671
-379.80518836
-379.12155698
-378.86028370
-379.69162160
-379.97566573
-379.52072688
-379.34537340
-379.65885226
-379.80862756
-379.41082046
-378.84785709
-378.86891773
-379.36231048
-379.58023073
-379.18166280
-378.67271493
-378.75078034
-379.44546748
-379.99719697
-379.59888050
-378.93446631
-379.42822877
-379.68944034
-378.96705006
-378.40566401
-378.58073792
-378.92805224
-379.05150364
-378.50715354
-378.26844737
-378.57534743
-378.19083332
-377.35023949
-376.85462236
-376.93963028
-377.20953351
-377.21143299
-376.75511702
-376.27541211
-376.35306487
-376.59017981
-376.45321221
-376.05656514
-375.74252908
-375.73516697
-376.31951711
-376.89803160
-376.47706035
-376.05451107
-376.70724228
-376.66906697
-375.93132430
-375.36864735
-375.38012317
-375.65867130
-375.93427910
-375.92916024
-375.38529589
-374.89802095
-375.30968638
-375.93896249
-375.97361631
-375.68538804
-375.67386159
-375.98755746
-376.29915260
-376.47517240
-376.36898368
-376.10487237
-376.01769668
-375.92843776
-375.59009452
-375.83852651
-376.42393468
-376.34280093
-375.95903671
-375.69120731
-375.50481577
-375.72530652
-376.33461380
-376.57115042
-376.26753038
-375.95049262
-376.07313258
-376.45401985
-376.70697785
-376.82868486
-376.91229278
-376.77566031
-376.52447971
-376.28182414
-375.96992660
-375.80785514
-375.71223814
-375.41705897
-375.04337395
-374.79710023
-374.71361007
-374.68457482
-374.60833643
-374.57476922
-374.70570683
-374.83100122
-374.52366362
-374.43702328
-375.19251175
-375.69794543
-375.40774231
-374.98779113
-374.94969521
-375.15128882
-375.27855682
-375.33747381
-375.40564163
-375.38377189
-375.44443939
-375.72962477
-375.79471481
-375.34523411
-375.02284803
-375.39901636
-375.93887391
-376.11489281
-375.94225449
-375.87675630
-376.22079985
-376.66157795
-376.66998883
-376.33389911
-376.19134163
-376.41227980
-376.65508370
-376.56816963
-376.33617766
-376.39061202
-376.63451717
-376.60320800
-376.22125455
-376.09622508
-376.42815921
-376.58816021
-376.33428061
-376.07611242
-376.22309833
-376.68546384
-376.97028309
-376.69021643
-376.06464843
-375.82521829
-376.19533041
-376.56018629
-376.43217797
-376.07395573
-375.91303304
-376.01231182
-376.19178313
-376.17729428
-375.91284106
-375.67186324
-375.57733359
-375.48623408
-431.26940048
-431.41868086
-432.20898942
-432.67963398
-432.68659435
-432.86677021
-433.08631613
-432.75768324
-432.09769557
-432.00400867
-432.53851680
-432.97559302
-433.09877590
-433.06668392
-432.83072110
-432.45903310
-432.14176189
-431.84519938
-431.68732171
-431.59806764
-431.33028529
-431.23260787
-431.69580288
-432.45754426
-433.24402745
-433.63251453
-433.49302822
-433.24211018
-433.00496573
-432.34804542
-431.43616710
-431.21572900
-431.70847848
-432.30262418
-432.54713765
-432.26970072
-431.84337091
-431.91096800
-432.40954258
-432.88634077
-433.26223866
-433.35882413
-432.81499276
-431.63671833
-430.59765327
-430.83017347
-432.29535873
-433.75987234
-434.40429379
-434.12845883
-433.34872172
-432.85229823
-433.15837230
-433.99499431
-434.62120432
-434.43533718
-433.69867182
-433.19587529
-433.25388384
-433.61725328
-433.89624191
-434.02965526
-434.06909937
-434.12162985
-434.30153112
-434.54043926
-434.81120617
-435.09967620
-435.21122644
-435.10541925
-435.11659700
-435.38532835
-435.46424666
-434.97295013
-434.20286298
-433.87526990
-434.07422502
-434.18409319
-433.98538536
-434.00814582
-434.33648122
-434.45735405
-434.37246028
-434.42246384
-434.27199993
-433.59348732
-433.01999787
-433.09846170
-433.44348304
-433.42041003
-432.92862544
-432.54653427
-432.57422493
-432.85863825
-433.38654892
-434.06257230
-434.76220360
-435.17915498
-435.03950801
-434.65683321
-434.54083114
-434.63455091
-434.66466061
-434.74155123
-434.95512452
-435.10090233
-434.98600088
-434.46123237
-433.80646455
-433.72309692
-434.26917631
-434.58347249
-434.20940542
-433.98953364
-434.61433748
-435.18649083
-435.08003128
-434.52908588
-433.93451806
-433.59579789
-433.70604113
-434.23690366
-434.75876766
-434.65506918
-433.86776392
-433.00331552
-432.65591106
-432.95554406
-433.49257073
-433.82472713
-433.84662857
-433.64818000
-433.27812507
-432.70509614
-432.03270965
-431.62973139
-431.78063213
-432.57456281
-433.79142704
-434.27257643
-433.91365848
-433.73950728
-433.73563416
-433.18353383
-432.11316988
-431.42054771
-431.53269670
-431.93908992
-432.20231832
-432.27071366
-432.24071770
-432.21018466
-432.29843389
-432.59725267
-432.98537638
-433.30746813
-433.41809978
-433.17819035
-432.75533328
-432.60840759
-432.78597235
-432.82182882
-432.64903304
-432.65822864
-432.90797496
-433.25997477
-433.64729537
-433.82068105
-433.70347786
-433.51445169
-433.66217734
-434.32603925
-435.06192978
-435.30945171
-434.86167997
-434.17589834
-433.93994251
-434.05546585
-434.17662069
-434.17069764
-433.92942573
-433.62343249
-433.52479123
-433.46465427
-433.40078163
-433.58048251
-433.87455213
-434.04423486
-434.28470239
-434.70740928
-434.94865382
-434.66809369
-433.93672556
-433.19754587
-432.99273236
-433.47264324
-434.16697806
-434.40555381
-433.97584577
-433.31849140
-433.09686369
-433.66579089
-434.42623787
-434.57551699
-434.33137992
-434.16643449
-433.87040585
-433.32389257
-432.95614723
-432.94065107
-432.93134191
-432.67443024
-432.39949782
-432.50278432
-432.99228764
-433.35834183
-433.14370753
-432.59408553
-432.11851288
-431.70620105
-431.27267276
-431.09250833
-431.60576788
-432.62052785
-433.09666478
-432.45321540
-431.45064964
-431.25206739
-432.01785086
-433.07656252
-433.62669052
-433.33385763
-432.61363436
-432.02591215
-431.65308022
-431.33464125
-431.21282488
-431.45247914
-431.89781588
-432.40090333
-432.57779979
-432.08584318
-431.50107714
-431.73267170
-432.78058643
-433.63929101
-433.68207368
-433.33421263
-433.29986341
-433.62407566
-433.89921338
-433.93520310
-433.85744124
-433.90559861
-434.17695764
-434.63439547
-435.08481015
-435.19799043
-434.92651151
-434.64476182
-434.83979244
-435.54650848
-436.11934983
-435.98372730
-435.29537297
-434.52831895
-433.95307369
-433.87520449
-434.44651746
-435.20420075
-435.52913449
-435.27604779
-434.94643647
-435.14868994
-435.87491571
-436.80872108
-437.53779072
-437.56938066
-436.89590554
-436.06733487
-435.68106321
-435.79338145
-436.03243946
-436.10129834
-435.93161483
-435.73927788
-435.70809922
-435.55465584
-435.18682341
-435.05800531
-435.25980298
-435.28262872
-434.85051523
-434.32304870
-434.21706352
-434.66147016
-435.32703292
-435.63844978
-435.32206171
-434.67486990
