 0.082834 -0.027745  0.022772 -0.026279  0.002595 -0.101802  0.018992  0.011638  0.060261  0.132846 -0.064990  0.321182  0.015157 -0.036214 -0.114512 -0.022506 -0.017350  0.054073  0.060631  0.003410 -0.228193  0.029234 -0.046460 -0.071775 -0.050862  0.016677  0.018918 -0.005386 -0.035181 -0.036155  0.002824  0.050343  0.155163  0.087351  0.008718  0.199772 -0.009085 -0.036913 -0.051056  0.035953 -0.062179 -0.071194  0.060912 -0.024733  0.011232 -0.003939 -0.014864  0.044195  0.019659 -0.059965 -0.159412  0.019023  0.012160  0.059339  0.010503 -0.024322 -0.055389 -0.024369  0.050224  0.133079  0.109618  0.046570  0.232955  0.027595 -0.006620  0.063184  0.008745 -0.046890 -0.105390 -0.010616  0.003202 -0.085179 -0.051146 -0.018307 -0.138480 -0.006521 -0.018735 -0.049716 -0.049982  0.006674  0.039067 -0.035113  0.069970  0.008947 -0.074623  0.021528  0.040680 -0.041258 -0.057675  0.563421 -0.048425  0.021237  0.049113 -0.111138  0.045968 -0.022988  0.090713 -0.006050  0.111106  0.027695  0.122341  0.455475 -0.012679 -0.038221 -0.064001 -0.045639 -0.031401 -0.137661  1.695423  0.613531  0.478545 -1.406639  1.837206 -0.467124 -0.750784 -0.182535 -0.345274  2.484569  0.033618  0.308614  2.695886 -0.488905  0.352785 -3.776325 -1.800361 -0.150031  0.427652 -1.483381  0.064547 -0.057726  0.184028 -0.028295 -1.028405  0.392707 -0.602612 -0.409106 -0.557492 -0.700483  1.663224  0.436354  0.723795 -3.707121  2.075240 -0.222856 -4.242449 -2.494450 -0.430924  0.795931  0.574683 -0.089443 -1.890979 -0.001942 -0.310653 -1.142344  2.241842 -0.187415  2.373060  1.253458 -0.409888  0.528707  0.836351 -0.170377  1.699603 -0.863443  0.508967  2.381287 -0.596261  0.436919  0.545529 -0.391112 -0.148973  0.700588 -2.571638 -0.590133  0.225564  1.042278  0.741468 
 0.122446 -0.109677  0.103438 -0.133427  0.015704 -0.139411  0.131049 -0.100226 -0.049775  0.133602 -0.100469  0.243942  0.003778 -0.002636 -0.048618 -0.086869 -0.122847  0.045330  0.037635 -0.021241 -0.152109  0.092905 -0.023033 -0.105028 -0.006512  0.027661  0.061834  0.052063  0.153052 -0.025970 -0.025677  0.126496  0.137687  0.031626 -0.025339  0.143800 -0.040888  0.002421 -0.013283 -0.014906 -0.116001 -0.033806 -0.049681 -0.046511 -0.040682  0.090137 -0.154109 -0.054579 -0.004512 -0.033243 -0.009813  0.053332  0.134223 -0.058893  0.076976  0.023156 -0.028158 -0.094683  0.187941  0.027776  0.143051  0.088769  0.192489  0.059645  0.008761  0.097808  0.013694  0.032450 -0.064973  0.049831 -0.078383 -0.027742  0.057611 -0.063947 -0.092929 -0.062878 -0.096066  0.035380 -0.072529  0.020517  0.070357 -0.057406  0.094354  0.067369 -0.113271  0.073606 -0.017680  0.000317 -0.076596  0.602989 -0.061618  0.009220  0.011294 -0.134321  0.076245 -0.011579  0.059913 -0.087921  0.120923  0.058641  0.116287  0.520345  0.023227 -0.165708 -0.118567 -0.078742  0.047714 -0.159387  1.264892 -0.006480  0.103723 -1.691521  1.153101 -0.442065 -2.193090  0.348043 -0.308148  3.383226  0.633587  0.407083  3.685946 -0.405886  0.738173 -4.961924  0.830218  0.180207  2.113892 -0.432417 -0.402215 -0.765606  0.711238 -0.023795 -2.113355 -0.379560 -0.701567 -0.008083 -1.277509 -1.245848  0.988847  1.191458  0.646242 -2.591091 -1.005287 -0.625638 -3.124299 -2.501903 -0.760168  0.546289  2.227983  0.224070 -1.462375  0.810191  0.063296 -1.308222  0.819017  0.247442  1.950884  1.649123 -0.353020  1.315877  0.737970  0.074465  1.534018 -1.129675  0.217716  3.247856  0.565592  0.336798 -0.860995 -2.509550 -0.037198  0.684712 -2.409335 -0.703886  0.136861  0.465290  1.112310 
 0.418412 -0.140470  0.765111  0.521344 -0.313825 -0.858191  0.958419 -1.206740 -0.332775 -2.765044  1.171486 -0.143226 -0.453334 -1.016486 -1.165849 -0.004534 -0.955862  0.337857 -0.460426 -0.256660  0.135075 -0.255629 -0.228078  0.833788 -0.176335  0.414238 -0.481792 -0.170466 -0.431978  0.206829 -0.054923  0.602620 -0.946133  2.317744 -0.888291  0.324619 -0.037893  0.308473  0.597034  0.066980 -0.198396  0.225198  0.779320 -0.289903  1.199083 -0.391484  1.992878 -1.498010  0.173412 -0.214948 -0.395534  0.058375  0.171675 -0.932370  0.254330 -0.122993 -0.951454 -0.365552  0.214295 -1.018167  0.536714  1.111796  1.763884  0.688803 -1.187418  0.448110 -1.180166 -0.519923 -0.546486  0.079453  0.064826  0.617620  0.896043  0.162759 -1.462470  0.395647  0.156200  0.127763 -0.197911  0.156451  0.369640 -0.892239 -0.556255  0.894682 -0.683181 -0.073411  0.462379 -0.226737 -0.534360  1.501528 -0.223798 -1.679226 -0.821649  0.531837  1.703117  0.873449 -0.023716  0.275192  0.640604  0.293395  0.517931 -0.184182 -0.943916  0.970070  0.881487  0.871531  0.283421  0.136451  0.049361 -2.736095 -1.256329 -3.240657 -2.322615  1.100950 -0.617460 -0.579567  0.941834 -4.335401 -1.801555  0.178290  0.355064 -0.082831 -1.025544  0.991133  4.123350 -1.732585 -0.845416 -1.552023 -0.473484  1.522939  0.508898 -1.272574  4.284525  0.902981 -0.474979 -0.966350  1.737957 -0.324661 -2.211773 -2.213255  1.311818  1.035570 -2.203638  2.713421 -0.378506 -0.320172  2.554348  1.496207  1.410221 -1.382522  1.725684 -0.322334 -0.279231 -0.217581  0.529225 -1.931289  0.397833 -1.882795  0.291605  1.926905  4.511491  2.039700  1.259090 -3.770621 -1.915838 -1.629677  1.819287 -0.731733 -1.200483  0.828674  0.218253 -1.835491 -1.919174  1.498429  2.116816  5.876370 -1.696687 
 0.479402 -0.112080  0.765333  0.527658 -0.295700 -0.895546  1.000305 -1.242771 -0.347203 -2.764841  1.203262 -0.212140 -0.478792 -1.037762 -1.117539  0.054977 -0.901450  0.327618 -0.555727 -0.244192  0.255628 -0.310067 -0.257457  0.824782 -0.143295  0.412184 -0.451435 -0.264201 -0.432286  0.221559 -0.050266  0.710372 -1.041756  2.390214 -0.830893  0.190978 -0.041669  0.300393  0.662060  0.075862 -0.192463  0.229153  0.785533 -0.247564  1.171463 -0.392090  1.942531 -1.542647  0.067571 -0.343675 -0.286621  0.022913  0.095491 -1.098254  0.245931 -0.139247 -1.034793 -0.335379  0.182768 -1.019798  0.579970  1.118492  1.661961  0.745839 -1.166694  0.508913 -1.222960 -0.515295 -0.573028  0.088641  0.066852  0.619042  0.913640  0.086363 -1.439550  0.375818  0.179362  0.136715 -0.173939  0.140031  0.304177 -0.950956 -0.619404  0.930733 -0.730305 -0.060319  0.492289 -0.128039 -0.736606  1.274678 -0.169978 -1.711794 -0.702025  0.493403  1.531413  0.820646 -0.045839  0.352167  0.747560  0.435207  0.495205 -0.250208 -0.960713  0.996419  0.852056  0.858891  0.449493  0.113862  0.485505 -1.026379 -1.518495 -4.369095 -3.199198  0.891661  0.972703 -2.018280  0.756999 -4.858368 -1.659145  0.491265  1.013851 -0.654069 -1.431887  0.108557  3.365884 -1.520546 -0.175394 -0.839785  0.180626  2.905579  0.710909 -1.151286  3.690514  3.070537  0.122242 -0.652104  1.657457 -0.202141 -2.011390 -1.269095  1.139333  0.784072 -1.925204  2.457560 -1.557921 -0.810076  2.821632  1.299536  1.203063 -1.508971  1.952962 -1.527732 -0.154539  0.338821  0.181163 -2.133560  1.063232 -1.195548  0.690252  2.522481  6.144670  2.034587 -0.207144 -4.740278 -2.380804 -2.173539 -0.441296 -0.616602 -2.453416  0.835831  0.164932 -1.707848 -2.018753  2.048969  2.635558  6.966311 -2.286363 
 0.542464 -0.082638  0.763846  0.533697 -0.277234 -0.928581  1.022803 -1.266674 -0.356337 -2.726428  1.215764 -0.275245 -0.506266 -1.052895 -1.046746  0.117863 -0.829684  0.309849 -0.639646 -0.228250  0.376601 -0.363181 -0.286610  0.813082 -0.117671  0.406374 -0.448507 -0.360696 -0.431570  0.233724 -0.043876  0.814131 -1.126944  2.414014 -0.758269  0.048807 -0.038608  0.285645  0.721983  0.082896 -0.191276  0.232357  0.790478 -0.204342  1.130294 -0.393869  1.876894 -1.580666 -0.037274 -0.475313 -0.188290 -0.012029  0.017858 -1.294851  0.229481 -0.142207 -1.117421 -0.305770  0.156135 -1.012452  0.628536  1.111475  1.536901  0.791230 -1.135903  0.574811 -1.263639 -0.508182 -0.602566  0.099317  0.068950  0.615885  0.913707  0.023952 -1.399448  0.355499  0.203986  0.145036 -0.150447  0.123369  0.243428 -1.011115 -0.689393  0.959494 -0.774130 -0.043168  0.518265 -0.098877 -0.986653  0.967008 -0.105665 -1.705319 -0.577933  0.442810  1.348980  0.744547 -0.070230  0.426542  0.845516  0.580757  0.472728 -0.325315 -0.964510  1.013489  0.808212  0.855780  0.608195  0.091220  0.802158  0.629232 -1.675528 -5.070552 -3.598979  0.724724  2.367642 -2.929925  0.561728 -4.313533 -1.018937  0.690603  1.634694 -1.150678 -1.688525 -1.229973  1.792718 -1.199980  0.808988  0.189217  0.813096  3.608111  0.901976 -0.998833  2.315493  4.593204  0.666037 -0.422841  1.488841 -0.087923 -1.741412 -0.324002  0.933221  0.774761 -1.266673  2.085704 -2.394635 -1.122487  2.910157  0.913238  0.781343 -1.455990  2.023724 -2.652153 -0.061047  0.716522 -0.329385 -2.151494  1.692877 -0.689094  1.016873  2.257280  6.344438  1.735748 -1.622921 -4.948791 -2.612825 -2.054090 -1.809287 -0.617541 -3.018169  1.154768  0.195137 -1.496786 -1.650527  2.351221  3.041375  6.698760 -2.556331 
 0.606730 -0.056298  0.759756  0.536447 -0.258206 -0.954385  1.027041 -1.278570 -0.349796 -2.651854  1.207418 -0.328114 -0.536503 -1.063448 -0.953352  0.181393 -0.742212  0.287330 -0.709006 -0.213946  0.498531 -0.414313 -0.319784  0.797496 -0.098760  0.406779 -0.462716 -0.458637 -0.436055  0.243181 -0.037704  0.915565 -1.193790  2.389290 -0.674244 -0.090393 -0.032099  0.274344  0.778246  0.089887 -0.191942  0.235377  0.795119 -0.159703  1.081778 -0.396823  1.798173 -1.607382 -0.139180 -0.602279 -0.092989 -0.035827 -0.046306 -1.485299  0.212516 -0.141566 -1.180340 -0.278023  0.133671 -0.994262  0.680524  1.090656  1.393218  0.823763 -1.096809  0.647963 -1.300770 -0.496941 -0.629388  0.109941  0.070414  0.605122  0.897990 -0.025175 -1.343844  0.335993  0.229977  0.153756 -0.130673  0.107143  0.194735 -1.072047 -0.764838  0.976901 -0.814905 -0.019902  0.544461 -0.138020 -1.237454  0.616328 -0.037434 -1.678421 -0.455594  0.387192  1.154504  0.653762 -0.098069  0.494343  0.929630  0.728586  0.451699 -0.405116 -0.954939  1.020907  0.753863  0.864765  0.761576  0.065531  0.987131  2.015220 -1.726218 -5.445302 -3.371542  0.675502  3.276421 -2.826740  0.318274 -3.405782 -0.145542  0.786698  2.224488 -1.335405 -1.771250 -2.252870 -0.231352 -0.826698  1.692574  1.030274  1.404032  3.733037  0.886297 -0.800984  0.546709  4.380386  1.118316 -0.226521  1.312380  0.008148 -1.342451  0.579521  0.712637  1.035603 -0.189451  1.604393 -2.884921 -1.289287  2.835048  0.308127  0.168153 -1.201914  1.955191 -3.566665 -0.009710  1.018646 -0.789133 -2.049581  2.160902 -0.446220  1.230064  1.346293  5.238949  1.152086 -2.487536 -4.262189 -2.571532 -1.676451 -1.767322 -0.678948 -3.082273  1.896836  0.292588 -1.101347 -0.875735  2.359440  3.291937  4.964894 -2.557087 
 0.673023 -0.030666  0.752050  0.536809 -0.238008 -0.975012  1.028490 -1.284620 -0.337244 -2.542991  1.179866 -0.372623 -0.568509 -1.067722 -0.843340  0.243640 -0.640971  0.259161 -0.768835 -0.200851  0.625579 -0.464211 -0.356890  0.779381 -0.085209  0.419484 -0.497398 -0.553696 -0.437506  0.251893 -0.030765  1.001841 -1.252311  2.318800 -0.584611 -0.216007 -0.027064  0.262292  0.824604  0.095489 -0.193300  0.235135  0.799332 -0.114289  1.024871 -0.399067  1.709856 -1.623960 -0.240450 -0.724519 -0.004728 -0.044083 -0.088193 -1.637041  0.210761 -0.141721 -1.220074 -0.252527  0.115480 -0.967034  0.734108  1.058141  1.229626  0.841483 -1.049345  0.723833 -1.332948 -0.482206 -0.655736  0.120801  0.071213  0.588040  0.867879 -0.064189 -1.272784  0.316766  0.257801  0.160786 -0.112532  0.089909  0.151154 -1.126968 -0.841273  0.980944 -0.853823  0.008931  0.568386 -0.248847 -1.430750  0.293705  0.029224 -1.653538 -0.338388  0.331620  0.940284  0.549513 -0.130645  0.552524  0.998039  0.877832  0.432327 -0.492618 -0.933817  1.018023  0.688691  0.883351  0.898822  0.040393  1.051199  2.977700 -1.700612 -5.523464 -2.545962  0.663246  3.468552 -2.023179 -0.017744 -2.521006  0.689063  0.807632  2.824635 -1.005053 -1.667476 -2.554358 -2.253836 -0.474265  2.107173  1.328377  1.939128  3.412173  0.618219 -0.524827 -1.449229  2.494279  1.473727  0.120304  1.241765  0.096715 -0.762536  1.400995  0.475015  1.432425  1.139281  1.038010 -3.084592 -1.401990  2.608968 -0.556647 -0.563097 -0.730868  1.809082 -4.158701  0.013254  1.240640 -1.029201 -1.831698  2.385493 -0.538208  1.275956  0.198544  3.056326  0.370743 -2.527643 -2.650214 -2.237073 -1.164174 -0.822960 -0.699567 -2.831814  3.049570  0.422489 -0.389858  0.170773  2.089696  3.098430  2.433077 -2.414234 
 0.740507 -0.004596  0.741848  0.534914 -0.216517 -0.988176  1.029050 -1.285486 -0.322083 -2.402951  1.134322 -0.408500 -0.602146 -1.066677 -0.717115  0.304820 -0.527872  0.225107 -0.824890 -0.185628  0.765943 -0.511398 -0.396112  0.759570 -0.073876  0.447940 -0.552081 -0.648667 -0.439702  0.261805 -0.022241  1.069408 -1.296951  2.207725 -0.494524 -0.316826 -0.025694  0.250340  0.862159  0.101966 -0.196281  0.232801  0.802565 -0.067431  0.962158 -0.399463  1.613887 -1.628328 -0.342530 -0.843993  0.076994 -0.039205 -0.103474 -1.712610  0.230621 -0.137314 -1.232333 -0.228810  0.101440 -0.929434  0.788229  1.014952  1.050527  0.844283 -0.994614  0.791281 -1.358589 -0.463679 -0.679544  0.130370  0.069795  0.563450  0.825817 -0.094468 -1.188354  0.298424  0.287291  0.167818 -0.095972  0.072423  0.114593 -1.173561 -0.913064  0.971293 -0.890537  0.043136  0.591353 -0.427217 -1.535012  0.065408  0.097677 -1.620660 -0.223861  0.276692  0.716976  0.430295 -0.165786  0.602377  1.054209  1.027468  0.414499 -0.585984 -0.903103  1.006901  0.616285  0.911487  1.027210  0.018232  1.016663  3.432984 -1.631751 -5.222742 -1.391142  0.548593  2.881287 -1.211523 -0.417188 -1.649863  1.341538  0.782584  3.293896 -0.195938 -1.400513 -2.219856 -3.715715 -0.182574  1.902354  1.042456  2.387016  2.829594  0.172119 -0.149958 -3.323935 -0.027063  1.673486  0.843941  1.393774  0.174862  0.015254  2.054892  0.235490  1.813443  2.227512  0.415750 -3.034872 -1.541493  2.246160 -1.620054 -1.282055 -0.093397  1.641023 -4.344397  0.028196  1.302551 -0.954903 -1.496351  2.340006 -0.992256  1.123654 -0.829134  0.342020 -0.435687 -1.876253 -0.369114 -1.616822 -0.515362  0.266914 -0.641875 -2.442420  4.291596  0.515159  0.679354  1.290194  1.607941  2.115559 -0.155588 -2.205127 
 0.807808  0.023739  0.728898  0.531893 -0.194539 -0.996025  1.023835 -1.278948 -0.307752 -2.235077  1.072763 -0.434059 -0.637084 -1.059063 -0.585098  0.364690 -0.406211  0.184457 -0.872059 -0.173494  0.907095 -0.558173 -0.435309  0.738670 -0.063890  0.494680 -0.628144 -0.742338 -0.448764  0.272707 -0.013084  1.118055 -1.319568  2.063122 -0.405267 -0.386159 -0.027524  0.243489  0.898353  0.107103 -0.198278  0.228237  0.804059 -0.019657  0.893179 -0.397186  1.514512 -1.622815 -0.440612 -0.965278  0.152210 -0.029649 -0.093919 -1.690838  0.273247 -0.118570 -1.213698 -0.206257  0.091009 -0.884342  0.840467  0.965145  0.856343  0.830535 -0.931369  0.843127 -1.376910 -0.441923 -0.704083  0.138612  0.067093  0.533322  0.774372 -0.118620 -1.093286  0.281299  0.315664  0.175514 -0.082095  0.056429  0.082087 -1.211669 -0.975900  0.948778 -0.925204  0.081708  0.611198 -0.659299 -1.546107 -0.029895  0.164912 -1.573281 -0.121069  0.230111  0.506517  0.304724 -0.200504  0.644122  1.102410  1.172477  0.397855 -0.684691 -0.862650  0.987119  0.535627  0.944104  1.153021 -0.003531  0.908895  3.350913 -1.540033 -4.430099 -0.245181  0.254793  1.582279 -0.556339 -0.780724 -0.587260  1.687115  0.709274  3.183022  0.735783 -1.039722 -1.531208 -4.106224  0.104940  1.156430  0.380835  2.714647  2.139076 -0.338845  0.284790 -4.382743 -2.081101  1.687128  2.142185  1.831813  0.239543  0.993131  2.465162 -0.008502  2.086574  2.495215 -0.263237 -2.780986 -1.733146  1.772531 -2.609260 -1.779941  0.588814  1.480473 -4.058857  0.056603  1.102293 -0.579301 -1.032324  2.074814 -1.692138  0.809787 -1.604848 -1.968238 -1.113081 -0.928773  2.022097 -0.808343  0.131567  1.063975 -0.525112 -2.031578  4.900993  0.510658  1.867006  2.285334  1.037542  0.187263 -2.462927 -1.953833 
 0.874671  0.051639  0.714649  0.526901 -0.171951 -0.996402  1.011791 -1.267047 -0.295484 -2.045075  0.998270 -0.445736 -0.673938 -1.042382 -0.448666  0.421668 -0.278971  0.140763 -0.917445 -0.165650  1.049402 -0.603159 -0.473972  0.715372 -0.055295  0.557914 -0.723067 -0.832497 -0.457230  0.281690 -0.003133  1.139356 -1.322152  1.893866 -0.316768 -0.423670 -0.030168  0.235823  0.925479  0.113119 -0.195867  0.223317  0.802841  0.028092  0.820155 -0.389741  1.414606 -1.601899 -0.530620 -1.084711  0.222464 -0.025422 -0.061880 -1.563523  0.331171 -0.079745 -1.157655 -0.184412  0.083911 -0.831382  0.889639  0.910298  0.653272  0.798264 -0.862868  0.873934 -1.386328 -0.417053 -0.724074  0.144900  0.062536  0.496831  0.715336 -0.138806 -0.991246  0.263999  0.344248  0.182723 -0.070704  0.043717  0.057167 -1.240431 -1.026298  0.915499 -0.956937  0.124094  0.629640 -0.911194 -1.501126 -0.011100  0.225346 -1.516589 -0.028942  0.186936  0.278396  0.160547 -0.232637  0.677297  1.146132  1.309205  0.382176 -0.784518 -0.813685  0.958721  0.452519  0.979754  1.269444 -0.019197  0.740743  2.760842 -1.410968 -3.061547  0.702752 -0.204666 -0.325057  0.231136 -1.009676  0.870656  1.605356  0.556322  2.041831  1.348766 -0.702253 -0.676737 -3.327947  0.474344  0.074049 -0.399062  2.890445  1.418873 -0.795370  0.715090 -4.028195 -3.098296  1.585031  3.786839  2.332986  0.305336  2.093267  2.587216 -0.250877  2.162916  1.777846 -1.032701 -2.361970 -1.912965  1.236981 -3.053865 -1.850930  1.136226  1.335828 -3.213305  0.131239  0.518167 -0.068217 -0.455403  1.667548 -2.252425  0.473059 -2.141252 -2.983535 -1.580879 -0.011097  3.773977 -0.036670  0.559915  1.464946 -0.375091 -1.582052  4.201013  0.416374  2.579018  2.953240  0.504455 -2.226605 -4.370086 -1.652389 
 0.940672  0.078731  0.698025  0.519765 -0.147107 -0.990780  0.995079 -1.247836 -0.291070 -1.838260  0.914136 -0.445011 -0.711403 -1.018122 -0.312179  0.476111 -0.150135  0.095376 -0.963838 -0.159355  1.187672 -0.646370 -0.511280  0.688593 -0.052987  0.636839 -0.838051 -0.914355 -0.467304  0.287572  0.005978  1.142056 -1.308201  1.704079 -0.219985 -0.435090 -0.032385  0.225791  0.952518  0.117300 -0.191334  0.217101  0.797459  0.075872  0.742096 -0.378013  1.318589 -1.568817 -0.612732 -1.204266  0.286203 -0.035025 -0.019218 -1.370245  0.395239 -0.025292 -1.076650 -0.163681  0.078974 -0.774363  0.932697  0.854394  0.444880  0.750911 -0.794846  0.886760 -1.384645 -0.390549 -0.739645  0.149907  0.056606  0.454320  0.651113 -0.155916 -0.883801  0.246233  0.372187  0.187756 -0.059080  0.032640  0.035963 -1.259378 -1.066120  0.874364 -0.986213  0.168094  0.645150 -1.124607 -1.441339  0.084850  0.279316 -1.457563  0.049772  0.143901  0.043271  0.012328 -0.262481  0.701799  1.185503  1.433163  0.366974 -0.886524 -0.756184  0.923043  0.368984  1.018351  1.369182 -0.031491  0.542169  1.788075 -1.232442 -1.127334  1.488394 -0.739667 -2.655834  1.370975 -1.053426  2.685258  1.030716  0.301085  0.122954  1.524722 -0.449403  0.262986 -1.885887  0.951894 -1.069793 -1.079899  2.874145  0.650466 -1.056876  1.079720 -2.425750 -3.161109  1.431096  4.850421  2.160037  0.423396  3.172768  2.453780 -0.466913  1.908110  0.523472 -1.836444 -1.791625 -1.935646  0.665847 -2.611866 -1.406284  1.438497  1.201925 -1.695049  0.279608 -0.520059  0.256662  0.198741  1.183911 -2.184284  0.287432 -2.528748 -2.714344 -1.868891  0.727076  4.305017  0.448872  0.589647  1.528360 -0.206136 -0.936830  2.298354  0.296239  2.315197  3.201105  0.094927 -3.944280 -5.553160 -1.350697 
 1.005532  0.103703  0.683880  0.509886 -0.119215 -0.978127  0.972261 -1.221055 -0.293891 -1.621879  0.823393 -0.438952 -0.747969 -0.994184 -0.174990  0.528141 -0.023180  0.047803 -1.008942 -0.154211  1.320985 -0.688620 -0.550245  0.659034 -0.057988  0.727327 -0.981574 -0.992931 -0.470326  0.293192  0.013425  1.130417 -1.277975  1.502278 -0.107599 -0.423350 -0.030026  0.214171  0.975198  0.120543 -0.188370  0.210807  0.785553  0.123035  0.659762 -0.360599  1.226577 -1.525438 -0.685050 -1.315525  0.338982 -0.060628  0.028225 -1.145132  0.456953  0.033094 -0.997617 -0.144250  0.076907 -0.712433  0.968452  0.797521  0.232959  0.683503 -0.729899  0.887814 -1.370695 -0.362884 -0.750066  0.155638  0.048351  0.409103  0.583339 -0.168324 -0.772735  0.228360  0.399365  0.190112 -0.045728  0.021915  0.016750 -1.266810 -1.098060  0.826866 -1.012509  0.212249  0.654154 -1.245293 -1.397651  0.216152  0.328929 -1.398742  0.114282  0.101346 -0.188450 -0.151068 -0.286684  0.719962  1.213606  1.541493  0.351416 -0.990746 -0.692463  0.882677  0.285251  1.053316  1.458503 -0.042131  0.361221  0.649261 -0.980446  1.203074  2.249480 -1.229022 -4.835497  2.656363 -0.963346  4.362535  0.246851 -0.005919 -1.694918  1.354149 -0.248079  1.187967 -0.420782  1.449275 -2.022470 -1.555423  2.676119 -0.278539 -0.973223  1.346509 -0.419608 -2.698188  1.233946  4.310383  0.420835  0.592969  3.985992  2.111422 -0.638832  1.215569 -0.626197 -2.529763 -1.020749 -1.657224  0.069970 -1.495609 -0.584338  1.512387  1.062282  0.660358  0.490397 -1.971928  0.115931  0.857785  0.655405 -1.340592  0.274034 -2.736667 -1.932100 -1.975227  1.242387  3.611702  0.580160  0.228158  1.306312 -0.017909  0.054184 -0.047138  0.184023  1.136374  3.091246 -0.195252 -3.773202 -5.576687 -1.067465 
 1.067566  0.126468  0.671340  0.497013 -0.088582 -0.958874  0.946570 -1.187651 -0.298324 -1.404181  0.729535 -0.434448 -0.784911 -0.970926 -0.042158  0.575844  0.099890  0.000019 -1.053666 -0.148994  1.447618 -0.728029 -0.591064  0.631464 -0.065527  0.824374 -1.162355 -1.063694 -0.470765  0.298564  0.023957  1.103401 -1.226477  1.300498  0.019440 -0.394677 -0.023315  0.198740  0.993469  0.121814 -0.189138  0.202259  0.768575  0.170104  0.574739 -0.341281  1.143259 -1.471005 -0.747763 -1.412230  0.377933 -0.101687  0.070778 -0.917999  0.514827  0.075885 -0.944792 -0.125716  0.076471 -0.646931  0.997371  0.740725  0.022154  0.596564 -0.670824  0.887263 -1.344617 -0.335078 -0.754180  0.162881  0.038887  0.361418  0.515895 -0.180035 -0.658073  0.209827  0.425798  0.189904 -0.031246  0.012383  0.001777 -1.256862 -1.119486  0.773256 -1.036029  0.255060  0.655839 -1.240434 -1.375789  0.373960  0.374195 -1.342322  0.164180  0.062116 -0.418734 -0.319961 -0.308375  0.734357  1.229610  1.631609  0.335471 -1.095002 -0.622648  0.837293  0.202358  1.087018  1.540897 -0.050423  0.268716 -0.396401 -0.646040  3.451720  2.977964 -1.556807 -5.827890  3.442823 -0.896302  4.971447 -0.081498 -0.218366 -2.762948  0.909640 -0.068041  1.945720  0.736653  1.883557 -2.634245 -1.818397  2.345053 -1.507657 -0.454204  1.480443  1.220503 -1.978584  1.000847  2.451372 -2.932995  0.738717  4.224657  1.511877 -0.729569  0.125500 -1.354648 -3.007897  0.060166 -1.006246 -0.546324 -0.209855  0.293075  1.457407  0.840627  3.838101  0.692616 -3.434517 -0.404307  1.386833  0.111890 -0.076772  0.308141 -2.683439 -1.270538 -1.920958  1.468984  2.302831  0.487395 -0.312281  0.781482  0.176903  1.428618 -2.263195  0.074546 -0.413247  2.810755 -0.405062 -1.979019 -4.624651 -0.730520 
 1.126335  0.148451  0.659570  0.482402 -0.057496 -0.934391  0.916587 -1.148175 -0.295311 -1.193581  0.637178 -0.437854 -0.818236 -0.946993  0.079786  0.617399  0.217214 -0.047090 -1.096197 -0.139689  1.568882 -0.763557 -0.632182  0.606577 -0.068019  0.915346 -1.377947 -1.124700 -0.476299  0.305245  0.039541  1.049382 -1.160789  1.112933  0.153505 -0.356050 -0.014655  0.183448  1.007163  0.121482 -0.192807  0.189624  0.746495  0.218849  0.487569 -0.323692  1.065688 -1.404054 -0.798540 -1.488827  0.407279 -0.153290  0.105257 -0.701624  0.568192  0.085386 -0.929981 -0.108746  0.076205 -0.579750  1.019113  0.683895 -0.184028  0.493681 -0.618035  0.885368 -1.307620 -0.305875 -0.747291  0.171861  0.028586  0.310229  0.450480 -0.193031 -0.544221  0.189780  0.452253  0.185096 -0.015318  0.002538 -0.010427 -1.228147 -1.130120  0.713584 -1.055316  0.297183  0.649717 -1.113703 -1.382020  0.547454  0.414656 -1.286509  0.200331  0.033926 -0.659118 -0.493846 -0.331778  0.743229  1.234364  1.701267  0.321378 -1.195170 -0.548992  0.789545  0.122808  1.118237  1.618631 -0.052315  0.293274 -1.136478 -0.213768  4.836967  3.253973 -1.646228 -4.967632  3.327523 -0.959256  4.020463  0.399781 -0.229615 -3.006042  0.223917  0.094519  2.448789  1.535796  2.234336 -2.880056 -1.917071  1.946691 -2.909917  0.381683  1.479106  2.168093 -1.055005  0.740197  0.515808 -6.430845  0.792403  3.501675  0.470541 -0.700703 -1.156160 -1.665254 -3.240710  1.654496  0.102946 -1.185283  0.882946  0.979677  1.369280  0.446078  6.882640  0.821976 -4.121616 -0.726969  1.648283 -0.393663  1.188939  0.285949 -2.331636 -0.911981 -1.755103  1.271575  0.991793  0.315360 -0.812845 -0.143863  0.383124  2.920653 -4.054718 -0.037195 -1.764614  2.461105 -0.536492  0.111334 -3.289512 -0.339008 
 1.179868  0.169302  0.646763  0.464266 -0.026123 -0.904395  0.886067 -1.105013 -0.280347 -0.998638  0.550346 -0.452258 -0.843605 -0.913248  0.192647  0.651610  0.328346 -0.093719 -1.135328 -0.125170  1.685747 -0.794614 -0.671010  0.581321 -0.070102  0.979378 -1.598714 -1.174404 -0.484938  0.312165  0.055539  0.968287 -1.086110  0.947681  0.286652 -0.312752 -0.009959  0.169776  1.021116  0.120323 -0.197606  0.172847  0.720071  0.270643  0.399112 -0.306260  0.990670 -1.322307 -0.839539 -1.551129  0.432514 -0.198408  0.134460 -0.497810  0.613904  0.050364 -0.946740 -0.094195  0.075078 -0.512562  1.033397  0.628096 -0.380559  0.383264 -0.569093  0.878018 -1.263998 -0.275140 -0.729459  0.181936  0.017725  0.255418  0.388990 -0.209962 -0.433514  0.170111  0.477252  0.179253 -0.000212 -0.006005 -0.019188 -1.181871 -1.129337  0.645627 -1.069643  0.340727  0.636254 -0.912888 -1.413292  0.723381  0.449398 -1.226786  0.225859  0.011493 -0.910596 -0.668973 -0.361081  0.748172  1.232359  1.747756  0.309757 -1.288437 -0.469953  0.738467  0.048290  1.147581  1.679742 -0.046687  0.419106 -1.422912  0.315522  4.865837  2.686554 -1.518213 -2.686097  2.632587 -1.063053  2.100170  1.244705 -0.123035 -2.694632 -0.597948  0.225336  2.657263  2.072811  2.534190 -2.809497 -1.887642  1.531384 -3.894587  1.117259  1.380703  2.461314  0.089190  0.456606 -0.785410 -7.604574  0.655673  1.419353 -1.225029 -0.538201 -2.377307 -1.671870 -3.255256  4.040927  1.739901 -1.836455  1.703932  1.439243  1.317039 -0.192397  7.680868  0.936365 -3.449110 -0.304538  1.614606 -0.836661  2.256326  0.200228 -1.687567 -0.756344 -1.527380  0.517621 -0.068055  0.124502 -1.094698 -1.517598  0.605277  3.817169 -5.231353 -0.179475 -2.511571  1.981565 -0.581834  1.562027 -1.792590  0.007357 
 1.227163  0.185199  0.631328  0.440862  0.005522 -0.867602  0.858161 -1.059036 -0.253161 -0.828950  0.472416 -0.478835 -0.865291 -0.868676  0.298733  0.678833  0.431746 -0.138570 -1.161303 -0.104809  1.793945 -0.818932 -0.707665  0.554152 -0.081467  1.004966 -1.783627 -1.210039 -0.490449  0.320948  0.071006  0.874137 -1.002578  0.804498  0.415381 -0.268329 -0.008062  0.158032  1.030487  0.119744 -0.201106  0.152600  0.689808  0.323360  0.308391 -0.285457  0.919822 -1.227019 -0.869939 -1.600345  0.451397 -0.218017  0.162324 -0.308783  0.654016 -0.029884 -0.972366 -0.080070  0.073335 -0.446891  1.038965  0.572368 -0.565512  0.268521 -0.520677  0.865512 -1.220330 -0.243196 -0.700487  0.191638  0.006456  0.198218  0.331150 -0.230746 -0.326242  0.151806  0.501748  0.174865  0.014519 -0.012534 -0.023652 -1.122399 -1.118339  0.569631 -1.077709  0.386868  0.618248 -0.702477 -1.455159  0.878612  0.478571 -1.157951  0.244029 -0.002436 -1.152007 -0.837427 -0.397861  0.748264  1.228309  1.768133  0.300051 -1.370367 -0.383861  0.684321 -0.018770  1.170295  1.717549 -0.035488  0.609350 -1.160586  0.959051  3.931862  1.495417 -1.292412  0.081051  1.876663 -1.044317  0.206251  1.814056 -0.055569 -2.154458 -1.394650  0.315268  2.551379  2.429850  2.799446 -2.446602 -1.709247  1.108340 -3.736594  1.355142  1.227787  2.279445  1.387226  0.142500 -1.515563 -5.536463  0.257240 -1.804658 -3.431136 -0.300111 -3.297279 -1.506648 -3.096772  7.028090  3.721660 -2.419725  2.262314  1.763605  1.331129 -1.039337  5.339601  1.111966 -1.660676  0.670808  1.388594 -1.208464  3.080337  0.094845 -0.812318 -0.653537 -1.276121 -0.736690 -0.887114 -0.090420 -1.110443 -3.220657  0.857951  3.313513 -5.643809 -0.381613 -2.484921  1.241883 -0.554944  2.112672 -0.053438  0.248238 