    0.00000000000000   0.00000000000000   0.00000000000000    -0.00000000000000   1.61666323023690   2.28630706599092    1.40007142674937   0.80833161511845   4.57261413198184 
    0.00000000000000   0.00000000000000   0.00000000000000    -0.00000000000000   1.74730268318533   2.47105915213160    1.51320851173921   0.87365134159267   4.94211830426320 
