       3.35380000       0.00000000       0.00000000      -0.07946898       6.22929312       0.00000000       0.02404341       0.15952898       3.76974942   
