       0.14484300       1.44770700       3.03983500              1.85554600       6.14001300       3.26371600              3.11433900       5.02752500       3.23655200              1.78860000       4.76133200       2.51173200              0.86479900       1.99063900       0.72217300              2.07383000       4.10034900       0.55193100              2.08023300       1.32564300       2.02129300              0.73933500       0.24431200       2.24954200              0.18585500       4.33251900       1.50282900              0.17196500       3.01305300       2.43031400              2.10491400       2.52679800       3.45003100              0.18758800       6.07117300       0.37824800              1.95750800       6.12359300       1.25224000              1.46224300       3.33498200       1.67172900              2.94068300       2.12144300       2.44945100              2.86429100       4.62346200       0.75930200              0.94818700       3.94094400       2.33011000              1.48531800       0.66471800       1.46856900              2.47792800       5.55416700       2.63882600              1.45122300       2.70072300       0.43513600              0.75104400       0.44888800       3.42143500          
