     -0.05439800      0.24378700      0.02063000      0.28527200     -0.12513800     -0.25176500     -0.28888800     -0.00618900      0.16100700     -0.46466100      0.08383700     -0.17050500      0.07224600     -0.39832200     -0.01284800     -0.11602100     -0.79190800      0.00023400      0.36663400      0.17577500     -0.58945900      0.55632000      0.45096100      0.42107600     -0.00741000     -0.36140500      0.11907300     -0.15219600      0.04598200      0.49314600     -0.18696600     -0.12957600      0.55094900     -0.17724900     -0.24019500     -0.09420900      0.48150100     -0.17531000     -0.18896000     -0.12731400      0.03370500      0.10072000     -0.48163400      0.49581800      0.46188600      0.24778800      0.23508200     -1.06019800      0.53694500     -0.29327600     -0.41352000     -1.15267900      0.46044500     -0.33079200      0.14523800     -0.48769200      0.11185700      0.06925700      0.40868500      0.24103100      0.44821800      0.37493500      0.43064500 
