  2.81428499  0.          0.         -1.40714249  2.43724229  0.   0.          0.          6.89356221
  2.84256926  0.          0.         -1.42128463  2.46173719  0.   0.          0.          6.96284425
  2.87085353  0.          0.         -1.43542677  2.48623209  0.   0.          0.          7.03212628
  2.8991378   0.          0.         -1.4495689   2.51072699  0.   0.          0.          7.10140831
