    0.00000000000000   0.00000000000000   0.00000000000000    -0.00000000000000   1.62482819604617   2.29785407137471    1.40714249456123   0.81241409802309   4.59570814274942 
    0.00000000000000   0.00000000000000   0.00000000000000    -0.00000000000000   1.64115812766473   2.32094808214229    1.42128463018496   0.82057906383236   4.64189616428459 
    0.00000000000000   0.00000000000000   0.00000000000000    -0.00000000000000   1.65748805928328   2.34404209290988    1.43542676580869   0.82874402964164   4.68808418581976 
    0.00000000000000   0.00000000000000   0.00000000000000    -0.00000000000000   1.67381799090184   2.36713610367746    1.44956890143242   0.83690899545092   4.73427220735493 
