-9.19132436
-9.39399919
-9.53437444
-9.62018898
