3.73377373 0.0 0.0 0.0 3.73377373 0.0 0.0 0.0 3.73377373
3.69770242 0.0 0.0 0.0 3.69770242 0.0 0.0 0.0 3.69770242
3.60903378 0.0 0.0 0.0 3.60903378 0.0 0.0 0.0 3.60903378
3.64626295 0.0 0.0 0.0 3.64626295 0.0 0.0 0.0 3.64626295
3.49956021 0.0 0.0 0.0 3.49956021 0.0 0.0 0.0 3.49956021
3.76317906 0.0 0.0 0.0 3.76317906 0.0 0.0 0.0 3.76317906
3.63654324 0.0 0.0 0.0 3.63654324 0.0 0.0 0.0 3.63654324
3.76523904 0.0 0.0 0.0 3.76523904 0.0 0.0 0.0 3.76523904
3.48241427 0.0 0.0 0.0 3.48241427 0.0 0.0 0.0 3.48241427
3.717166 0.0 0.0 0.0 3.717166 0.0 0.0 0.0 3.717166
3.51342652 0.0 0.0 0.0 3.51342652 0.0 0.0 0.0 3.51342652
3.59858425 0.0 0.0 0.0 3.59858425 0.0 0.0 0.0 3.59858425
3.72027968 0.0 0.0 0.0 3.72027968 0.0 0.0 0.0 3.72027968
3.7728775 0.0 0.0 0.0 3.7728775 0.0 0.0 0.0 3.7728775
3.75306799 0.0 0.0 0.0 3.75306799 0.0 0.0 0.0 3.75306799
3.71525441 0.0 0.0 0.0 3.71525441 0.0 0.0 0.0 3.71525441
3.70425021 0.0 0.0 0.0 3.70425021 0.0 0.0 0.0 3.70425021
3.60730243 0.0 0.0 0.0 3.60730243 0.0 0.0 0.0 3.60730243
3.64981792 0.0 0.0 0.0 3.64981792 0.0 0.0 0.0 3.64981792
3.68085628 0.0 0.0 0.0 3.68085628 0.0 0.0 0.0 3.68085628
3.58778367 0.0 0.0 0.0 3.58778367 0.0 0.0 0.0 3.58778367
3.7661009 0.0 0.0 0.0 3.7661009 0.0 0.0 0.0 3.7661009
3.59352972 0.0 0.0 0.0 3.59352972 0.0 0.0 0.0 3.59352972
3.72334201 0.0 0.0 0.0 3.72334201 0.0 0.0 0.0 3.72334201
3.4904377 0.0 0.0 0.0 3.4904377 0.0 0.0 0.0 3.4904377
3.62951165 0.0 0.0 0.0 3.62951165 0.0 0.0 0.0 3.62951165
3.73956039 0.0 0.0 0.0 3.73956039 0.0 0.0 0.0 3.73956039
3.7531719 0.0 0.0 0.0 3.7531719 0.0 0.0 0.0 3.7531719
3.74552919 0.0 0.0 0.0 3.74552919 0.0 0.0 0.0 3.74552919
3.47818039 0.0 0.0 0.0 3.47818039 0.0 0.0 0.0 3.47818039
3.73307428 0.0 0.0 0.0 3.73307428 0.0 0.0 0.0 3.73307428
3.61376676 0.0 0.0 0.0 3.61376676 0.0 0.0 0.0 3.61376676
3.51511524 0.0 0.0 0.0 3.51511524 0.0 0.0 0.0 3.51511524
3.47893541 0.0 0.0 0.0 3.47893541 0.0 0.0 0.0 3.47893541
3.52340661 0.0 0.0 0.0 3.52340661 0.0 0.0 0.0 3.52340661
3.78795368 0.0 0.0 0.0 3.78795368 0.0 0.0 0.0 3.78795368
3.57046479 0.0 0.0 0.0 3.57046479 0.0 0.0 0.0 3.57046479
3.5246779 0.0 0.0 0.0 3.5246779 0.0 0.0 0.0 3.5246779
3.54965822 0.0 0.0 0.0 3.54965822 0.0 0.0 0.0 3.54965822
3.73918224 0.0 0.0 0.0 3.73918224 0.0 0.0 0.0 3.73918224
3.49417653 0.0 0.0 0.0 3.49417653 0.0 0.0 0.0 3.49417653
3.66742734 0.0 0.0 0.0 3.66742734 0.0 0.0 0.0 3.66742734
3.7590014 0.0 0.0 0.0 3.7590014 0.0 0.0 0.0 3.7590014
3.66251337 0.0 0.0 0.0 3.66251337 0.0 0.0 0.0 3.66251337
3.50490503 0.0 0.0 0.0 3.50490503 0.0 0.0 0.0 3.50490503
3.77683901 0.0 0.0 0.0 3.77683901 0.0 0.0 0.0 3.77683901
3.68060145 0.0 0.0 0.0 3.68060145 0.0 0.0 0.0 3.68060145
3.50421545 0.0 0.0 0.0 3.50421545 0.0 0.0 0.0 3.50421545
3.55976336 0.0 0.0 0.0 3.55976336 0.0 0.0 0.0 3.55976336
3.44753947 0.0 0.0 0.0 3.44753947 0.0 0.0 0.0 3.44753947
3.45500217 0.0 0.0 0.0 3.45500217 0.0 0.0 0.0 3.45500217
3.79547469 0.0 0.0 0.0 3.79547469 0.0 0.0 0.0 3.79547469
3.44845448 0.0 0.0 0.0 3.44845448 0.0 0.0 0.0 3.44845448
3.75267805 0.0 0.0 0.0 3.75267805 0.0 0.0 0.0 3.75267805
3.4784201 0.0 0.0 0.0 3.4784201 0.0 0.0 0.0 3.4784201
3.58792619 0.0 0.0 0.0 3.58792619 0.0 0.0 0.0 3.58792619
3.63157975 0.0 0.0 0.0 3.63157975 0.0 0.0 0.0 3.63157975
3.44587494 0.0 0.0 0.0 3.44587494 0.0 0.0 0.0 3.44587494
3.48526713 0.0 0.0 0.0 3.48526713 0.0 0.0 0.0 3.48526713
3.73832202 0.0 0.0 0.0 3.73832202 0.0 0.0 0.0 3.73832202
3.51235217 0.0 0.0 0.0 3.51235217 0.0 0.0 0.0 3.51235217
3.59817295 0.0 0.0 0.0 3.59817295 0.0 0.0 0.0 3.59817295
3.56116811 0.0 0.0 0.0 3.56116811 0.0 0.0 0.0 3.56116811
3.77448447 0.0 0.0 0.0 3.77448447 0.0 0.0 0.0 3.77448447
3.74815844 0.0 0.0 0.0 3.74815844 0.0 0.0 0.0 3.74815844
3.72329671 0.0 0.0 0.0 3.72329671 0.0 0.0 0.0 3.72329671
3.76725895 0.0 0.0 0.0 3.76725895 0.0 0.0 0.0 3.76725895
3.46304469 0.0 0.0 0.0 3.46304469 0.0 0.0 0.0 3.46304469
3.74021325 0.0 0.0 0.0 3.74021325 0.0 0.0 0.0 3.74021325
3.53028839 0.0 0.0 0.0 3.53028839 0.0 0.0 0.0 3.53028839
3.69955755 0.0 0.0 0.0 3.69955755 0.0 0.0 0.0 3.69955755
3.45697691 0.0 0.0 0.0 3.45697691 0.0 0.0 0.0 3.45697691
3.70263615 0.0 0.0 0.0 3.70263615 0.0 0.0 0.0 3.70263615
3.59580595 0.0 0.0 0.0 3.59580595 0.0 0.0 0.0 3.59580595
3.5821824 0.0 0.0 0.0 3.5821824 0.0 0.0 0.0 3.5821824
3.50139342 0.0 0.0 0.0 3.50139342 0.0 0.0 0.0 3.50139342
3.58276592 0.0 0.0 0.0 3.58276592 0.0 0.0 0.0 3.58276592
3.73005388 0.0 0.0 0.0 3.73005388 0.0 0.0 0.0 3.73005388
3.7041338 0.0 0.0 0.0 3.7041338 0.0 0.0 0.0 3.7041338
3.53087679 0.0 0.0 0.0 3.53087679 0.0 0.0 0.0 3.53087679
3.52302923 0.0 0.0 0.0 3.52302923 0.0 0.0 0.0 3.52302923
3.7228667 0.0 0.0 0.0 3.7228667 0.0 0.0 0.0 3.7228667
3.51963533 0.0 0.0 0.0 3.51963533 0.0 0.0 0.0 3.51963533
3.66726689 0.0 0.0 0.0 3.66726689 0.0 0.0 0.0 3.66726689
3.75100272 0.0 0.0 0.0 3.75100272 0.0 0.0 0.0 3.75100272
3.52929139 0.0 0.0 0.0 3.52929139 0.0 0.0 0.0 3.52929139
3.63017476 0.0 0.0 0.0 3.63017476 0.0 0.0 0.0 3.63017476
3.77950675 0.0 0.0 0.0 3.77950675 0.0 0.0 0.0 3.77950675
3.52087438 0.0 0.0 0.0 3.52087438 0.0 0.0 0.0 3.52087438
3.47878845 0.0 0.0 0.0 3.47878845 0.0 0.0 0.0 3.47878845
3.71597686 0.0 0.0 0.0 3.71597686 0.0 0.0 0.0 3.71597686
3.58937116 0.0 0.0 0.0 3.58937116 0.0 0.0 0.0 3.58937116
3.47779983 0.0 0.0 0.0 3.47779983 0.0 0.0 0.0 3.47779983
3.73342321 0.0 0.0 0.0 3.73342321 0.0 0.0 0.0 3.73342321
3.58960894 0.0 0.0 0.0 3.58960894 0.0 0.0 0.0 3.58960894
3.67540875 0.0 0.0 0.0 3.67540875 0.0 0.0 0.0 3.67540875
3.78665827 0.0 0.0 0.0 3.78665827 0.0 0.0 0.0 3.78665827
3.78049587 0.0 0.0 0.0 3.78049587 0.0 0.0 0.0 3.78049587
3.44426138 0.0 0.0 0.0 3.44426138 0.0 0.0 0.0 3.44426138
3.58452879 0.0 0.0 0.0 3.58452879 0.0 0.0 0.0 3.58452879
3.46931913 0.0 0.0 0.0 3.46931913 0.0 0.0 0.0 3.46931913
3.63466013 0.0 0.0 0.0 3.63466013 0.0 0.0 0.0 3.63466013
3.63369123 0.0 0.0 0.0 3.63369123 0.0 0.0 0.0 3.63369123
3.7736676 0.0 0.0 0.0 3.7736676 0.0 0.0 0.0 3.7736676
3.53591486 0.0 0.0 0.0 3.53591486 0.0 0.0 0.0 3.53591486
3.55142123 0.0 0.0 0.0 3.55142123 0.0 0.0 0.0 3.55142123
3.63689412 0.0 0.0 0.0 3.63689412 0.0 0.0 0.0 3.63689412
3.57850704 0.0 0.0 0.0 3.57850704 0.0 0.0 0.0 3.57850704
3.45259467 0.0 0.0 0.0 3.45259467 0.0 0.0 0.0 3.45259467
3.58427806 0.0 0.0 0.0 3.58427806 0.0 0.0 0.0 3.58427806
3.71167108 0.0 0.0 0.0 3.71167108 0.0 0.0 0.0 3.71167108
3.46119583 0.0 0.0 0.0 3.46119583 0.0 0.0 0.0 3.46119583
3.60596388 0.0 0.0 0.0 3.60596388 0.0 0.0 0.0 3.60596388
3.64696071 0.0 0.0 0.0 3.64696071 0.0 0.0 0.0 3.64696071
3.55288546 0.0 0.0 0.0 3.55288546 0.0 0.0 0.0 3.55288546
3.66925895 0.0 0.0 0.0 3.66925895 0.0 0.0 0.0 3.66925895
3.64511746 0.0 0.0 0.0 3.64511746 0.0 0.0 0.0 3.64511746
3.67740823 0.0 0.0 0.0 3.67740823 0.0 0.0 0.0 3.67740823
3.55781837 0.0 0.0 0.0 3.55781837 0.0 0.0 0.0 3.55781837
3.71919903 0.0 0.0 0.0 3.71919903 0.0 0.0 0.0 3.71919903
3.6762663 0.0 0.0 0.0 3.6762663 0.0 0.0 0.0 3.6762663
3.48929241 0.0 0.0 0.0 3.48929241 0.0 0.0 0.0 3.48929241
3.71259352 0.0 0.0 0.0 3.71259352 0.0 0.0 0.0 3.71259352
3.61808157 0.0 0.0 0.0 3.61808157 0.0 0.0 0.0 3.61808157
3.46588413 0.0 0.0 0.0 3.46588413 0.0 0.0 0.0 3.46588413
3.76394772 0.0 0.0 0.0 3.76394772 0.0 0.0 0.0 3.76394772
3.75186847 0.0 0.0 0.0 3.75186847 0.0 0.0 0.0 3.75186847
3.53567863 0.0 0.0 0.0 3.53567863 0.0 0.0 0.0 3.53567863
3.76858209 0.0 0.0 0.0 3.76858209 0.0 0.0 0.0 3.76858209
3.52620767 0.0 0.0 0.0 3.52620767 0.0 0.0 0.0 3.52620767
3.57893006 0.0 0.0 0.0 3.57893006 0.0 0.0 0.0 3.57893006
3.48457838 0.0 0.0 0.0 3.48457838 0.0 0.0 0.0 3.48457838
3.50976914 0.0 0.0 0.0 3.50976914 0.0 0.0 0.0 3.50976914
3.68108825 0.0 0.0 0.0 3.68108825 0.0 0.0 0.0 3.68108825
3.694378 0.0 0.0 0.0 3.694378 0.0 0.0 0.0 3.694378
3.79078549 0.0 0.0 0.0 3.79078549 0.0 0.0 0.0 3.79078549
3.59824011 0.0 0.0 0.0 3.59824011 0.0 0.0 0.0 3.59824011
3.6627847 0.0 0.0 0.0 3.6627847 0.0 0.0 0.0 3.6627847
3.70489748 0.0 0.0 0.0 3.70489748 0.0 0.0 0.0 3.70489748
3.54247329 0.0 0.0 0.0 3.54247329 0.0 0.0 0.0 3.54247329
3.48945916 0.0 0.0 0.0 3.48945916 0.0 0.0 0.0 3.48945916
3.77921215 0.0 0.0 0.0 3.77921215 0.0 0.0 0.0 3.77921215
3.59448153 0.0 0.0 0.0 3.59448153 0.0 0.0 0.0 3.59448153
3.78100696 0.0 0.0 0.0 3.78100696 0.0 0.0 0.0 3.78100696
3.44931611 0.0 0.0 0.0 3.44931611 0.0 0.0 0.0 3.44931611
3.733875 0.0 0.0 0.0 3.733875 0.0 0.0 0.0 3.733875
3.52525388 0.0 0.0 0.0 3.52525388 0.0 0.0 0.0 3.52525388
3.57173553 0.0 0.0 0.0 3.57173553 0.0 0.0 0.0 3.57173553
3.69653824 0.0 0.0 0.0 3.69653824 0.0 0.0 0.0 3.69653824
3.71600368 0.0 0.0 0.0 3.71600368 0.0 0.0 0.0 3.71600368
3.79196472 0.0 0.0 0.0 3.79196472 0.0 0.0 0.0 3.79196472
3.5034931 0.0 0.0 0.0 3.5034931 0.0 0.0 0.0 3.5034931
3.64225248 0.0 0.0 0.0 3.64225248 0.0 0.0 0.0 3.64225248
3.54839876 0.0 0.0 0.0 3.54839876 0.0 0.0 0.0 3.54839876
3.50057515 0.0 0.0 0.0 3.50057515 0.0 0.0 0.0 3.50057515
3.63957286 0.0 0.0 0.0 3.63957286 0.0 0.0 0.0 3.63957286
3.47937868 0.0 0.0 0.0 3.47937868 0.0 0.0 0.0 3.47937868
3.55250443 0.0 0.0 0.0 3.55250443 0.0 0.0 0.0 3.55250443
3.61155381 0.0 0.0 0.0 3.61155381 0.0 0.0 0.0 3.61155381
3.73592065 0.0 0.0 0.0 3.73592065 0.0 0.0 0.0 3.73592065
3.43489331 0.0 0.0 0.0 3.43489331 0.0 0.0 0.0 3.43489331
3.69588134 0.0 0.0 0.0 3.69588134 0.0 0.0 0.0 3.69588134
3.74179409 0.0 0.0 0.0 3.74179409 0.0 0.0 0.0 3.74179409
3.60669367 0.0 0.0 0.0 3.60669367 0.0 0.0 0.0 3.60669367
3.65991686 0.0 0.0 0.0 3.65991686 0.0 0.0 0.0 3.65991686
3.52738025 0.0 0.0 0.0 3.52738025 0.0 0.0 0.0 3.52738025
3.47868418 0.0 0.0 0.0 3.47868418 0.0 0.0 0.0 3.47868418
3.62826528 0.0 0.0 0.0 3.62826528 0.0 0.0 0.0 3.62826528
3.61191197 0.0 0.0 0.0 3.61191197 0.0 0.0 0.0 3.61191197
3.71688246 0.0 0.0 0.0 3.71688246 0.0 0.0 0.0 3.71688246
3.63748336 0.0 0.0 0.0 3.63748336 0.0 0.0 0.0 3.63748336
3.55298456 0.0 0.0 0.0 3.55298456 0.0 0.0 0.0 3.55298456
3.45189708 0.0 0.0 0.0 3.45189708 0.0 0.0 0.0 3.45189708
3.70862349 0.0 0.0 0.0 3.70862349 0.0 0.0 0.0 3.70862349
3.74307227 0.0 0.0 0.0 3.74307227 0.0 0.0 0.0 3.74307227
3.50667896 0.0 0.0 0.0 3.50667896 0.0 0.0 0.0 3.50667896
3.60589292 0.0 0.0 0.0 3.60589292 0.0 0.0 0.0 3.60589292
3.62331798 0.0 0.0 0.0 3.62331798 0.0 0.0 0.0 3.62331798
3.77961951 0.0 0.0 0.0 3.77961951 0.0 0.0 0.0 3.77961951
3.65125322 0.0 0.0 0.0 3.65125322 0.0 0.0 0.0 3.65125322
3.47307285 0.0 0.0 0.0 3.47307285 0.0 0.0 0.0 3.47307285
3.68271711 0.0 0.0 0.0 3.68271711 0.0 0.0 0.0 3.68271711
3.44566598 0.0 0.0 0.0 3.44566598 0.0 0.0 0.0 3.44566598
3.57663813 0.0 0.0 0.0 3.57663813 0.0 0.0 0.0 3.57663813
3.6849402 0.0 0.0 0.0 3.6849402 0.0 0.0 0.0 3.6849402
3.67514536 0.0 0.0 0.0 3.67514536 0.0 0.0 0.0 3.67514536
3.78387789 0.0 0.0 0.0 3.78387789 0.0 0.0 0.0 3.78387789
3.5024554 0.0 0.0 0.0 3.5024554 0.0 0.0 0.0 3.5024554
3.43495789 0.0 0.0 0.0 3.43495789 0.0 0.0 0.0 3.43495789
3.46224593 0.0 0.0 0.0 3.46224593 0.0 0.0 0.0 3.46224593
3.52813332 0.0 0.0 0.0 3.52813332 0.0 0.0 0.0 3.52813332
3.68820013 0.0 0.0 0.0 3.68820013 0.0 0.0 0.0 3.68820013
3.52071682 0.0 0.0 0.0 3.52071682 0.0 0.0 0.0 3.52071682
3.76825181 0.0 0.0 0.0 3.76825181 0.0 0.0 0.0 3.76825181
3.70198215 0.0 0.0 0.0 3.70198215 0.0 0.0 0.0 3.70198215
3.52189312 0.0 0.0 0.0 3.52189312 0.0 0.0 0.0 3.52189312
3.62949585 0.0 0.0 0.0 3.62949585 0.0 0.0 0.0 3.62949585
3.60688759 0.0 0.0 0.0 3.60688759 0.0 0.0 0.0 3.60688759
3.61945766 0.0 0.0 0.0 3.61945766 0.0 0.0 0.0 3.61945766
3.72653479 0.0 0.0 0.0 3.72653479 0.0 0.0 0.0 3.72653479
3.47434856 0.0 0.0 0.0 3.47434856 0.0 0.0 0.0 3.47434856
3.76814623 0.0 0.0 0.0 3.76814623 0.0 0.0 0.0 3.76814623
3.59447255 0.0 0.0 0.0 3.59447255 0.0 0.0 0.0 3.59447255
3.63280626 0.0 0.0 0.0 3.63280626 0.0 0.0 0.0 3.63280626
3.59541468 0.0 0.0 0.0 3.59541468 0.0 0.0 0.0 3.59541468
3.57895266 0.0 0.0 0.0 3.57895266 0.0 0.0 0.0 3.57895266
3.77366763 0.0 0.0 0.0 3.77366763 0.0 0.0 0.0 3.77366763
3.58059943 0.0 0.0 0.0 3.58059943 0.0 0.0 0.0 3.58059943
3.53191358 0.0 0.0 0.0 3.53191358 0.0 0.0 0.0 3.53191358
3.74770821 0.0 0.0 0.0 3.74770821 0.0 0.0 0.0 3.74770821
3.45016233 0.0 0.0 0.0 3.45016233 0.0 0.0 0.0 3.45016233
3.54801891 0.0 0.0 0.0 3.54801891 0.0 0.0 0.0 3.54801891
3.61310877 0.0 0.0 0.0 3.61310877 0.0 0.0 0.0 3.61310877
3.49949143 0.0 0.0 0.0 3.49949143 0.0 0.0 0.0 3.49949143
3.68892299 0.0 0.0 0.0 3.68892299 0.0 0.0 0.0 3.68892299
3.61752037 0.0 0.0 0.0 3.61752037 0.0 0.0 0.0 3.61752037
3.46597312 0.0 0.0 0.0 3.46597312 0.0 0.0 0.0 3.46597312
3.44261259 0.0 0.0 0.0 3.44261259 0.0 0.0 0.0 3.44261259
3.70097752 0.0 0.0 0.0 3.70097752 0.0 0.0 0.0 3.70097752
3.56483957 0.0 0.0 0.0 3.56483957 0.0 0.0 0.0 3.56483957
3.54346559 0.0 0.0 0.0 3.54346559 0.0 0.0 0.0 3.54346559
3.78131451 0.0 0.0 0.0 3.78131451 0.0 0.0 0.0 3.78131451
3.60540179 0.0 0.0 0.0 3.60540179 0.0 0.0 0.0 3.60540179
3.49989873 0.0 0.0 0.0 3.49989873 0.0 0.0 0.0 3.49989873
3.65896029 0.0 0.0 0.0 3.65896029 0.0 0.0 0.0 3.65896029
3.50618338 0.0 0.0 0.0 3.50618338 0.0 0.0 0.0 3.50618338
3.56022801 0.0 0.0 0.0 3.56022801 0.0 0.0 0.0 3.56022801
3.63495073 0.0 0.0 0.0 3.63495073 0.0 0.0 0.0 3.63495073
3.56505175 0.0 0.0 0.0 3.56505175 0.0 0.0 0.0 3.56505175
3.47703804 0.0 0.0 0.0 3.47703804 0.0 0.0 0.0 3.47703804
3.47526362 0.0 0.0 0.0 3.47526362 0.0 0.0 0.0 3.47526362
3.51357242 0.0 0.0 0.0 3.51357242 0.0 0.0 0.0 3.51357242
3.4838439 0.0 0.0 0.0 3.4838439 0.0 0.0 0.0 3.4838439
3.48153655 0.0 0.0 0.0 3.48153655 0.0 0.0 0.0 3.48153655
3.77945583 0.0 0.0 0.0 3.77945583 0.0 0.0 0.0 3.77945583
3.67676734 0.0 0.0 0.0 3.67676734 0.0 0.0 0.0 3.67676734
3.70330608 0.0 0.0 0.0 3.70330608 0.0 0.0 0.0 3.70330608
3.57487923 0.0 0.0 0.0 3.57487923 0.0 0.0 0.0 3.57487923
3.674525 0.0 0.0 0.0 3.674525 0.0 0.0 0.0 3.674525
3.67025086 0.0 0.0 0.0 3.67025086 0.0 0.0 0.0 3.67025086
3.60233321 0.0 0.0 0.0 3.60233321 0.0 0.0 0.0 3.60233321
3.71225303 0.0 0.0 0.0 3.71225303 0.0 0.0 0.0 3.71225303
3.74691589 0.0 0.0 0.0 3.74691589 0.0 0.0 0.0 3.74691589
3.53240848 0.0 0.0 0.0 3.53240848 0.0 0.0 0.0 3.53240848
3.7523233 0.0 0.0 0.0 3.7523233 0.0 0.0 0.0 3.7523233
3.74701758 0.0 0.0 0.0 3.74701758 0.0 0.0 0.0 3.74701758
3.49356183 0.0 0.0 0.0 3.49356183 0.0 0.0 0.0 3.49356183
3.6126868 0.0 0.0 0.0 3.6126868 0.0 0.0 0.0 3.6126868
3.45831819 0.0 0.0 0.0 3.45831819 0.0 0.0 0.0 3.45831819
3.5284734 0.0 0.0 0.0 3.5284734 0.0 0.0 0.0 3.5284734
3.50051007 0.0 0.0 0.0 3.50051007 0.0 0.0 0.0 3.50051007
3.77487465 0.0 0.0 0.0 3.77487465 0.0 0.0 0.0 3.77487465
3.4667757 0.0 0.0 0.0 3.4667757 0.0 0.0 0.0 3.4667757
3.49576688 0.0 0.0 0.0 3.49576688 0.0 0.0 0.0 3.49576688
3.67183341 0.0 0.0 0.0 3.67183341 0.0 0.0 0.0 3.67183341
3.4778636 0.0 0.0 0.0 3.4778636 0.0 0.0 0.0 3.4778636
