0.0 0.0 0.0 0.0 1.98568 1.92836 1.92648 0.0 1.93895 1.9191 1.86742 0.0
0.0 0.0 0.0 0.0 2.008 1.99674 1.90772 0.0 1.86976 1.95455 1.89721 0.0
0.0 0.0 0.0 0.0 1.91281 1.80822 1.86164 0.0 1.95671 1.97647 1.96618 0.0
0.0 0.0 0.0 0.0 1.85431 1.86681 1.88101 0.0 1.88246 1.85563 1.8697 0.0
0.0 0.0 0.0 0.0 1.8721 1.87029 1.87982 0.0 1.90421 1.80985 1.83462 0.0
0.0 0.0 0.0 0.0 2.02054 1.89808 2.05715 0.0 1.88646 1.90117 1.98835 0.0
0.0 0.0 0.0 0.0 1.94596 1.85164 1.95504 0.0 1.84649 1.90032 1.96978 0.0
0.0 0.0 0.0 0.0 1.91116 2.01981 1.89521 0.0 1.92394 2.03424 1.89109 0.0
0.0 0.0 0.0 0.0 1.88333 1.84455 1.90416 0.0 1.76387 1.85231 1.88308 0.0
0.0 0.0 0.0 0.0 1.9049 1.92022 1.87904 0.0 1.9044 1.90721 1.92891 0.0
0.0 0.0 0.0 0.0 1.80099 1.81555 1.75796 0.0 1.88832 1.90135 1.85266 0.0
0.0 0.0 0.0 0.0 1.81831 1.84235 1.95985 0.0 1.81867 1.82476 1.80887 0.0
0.0 0.0 0.0 0.0 1.99005 2.00291 1.9963 0.0 1.95649 2.04318 1.91546 0.0
0.0 0.0 0.0 0.0 2.03792 1.91648 1.89675 0.0 2.02188 1.91669 1.94523 0.0
0.0 0.0 0.0 0.0 1.97844 1.92061 1.89839 0.0 2.03567 2.02945 1.96664 0.0
0.0 0.0 0.0 0.0 1.95065 1.88015 2.01953 0.0 2.01604 1.98293 1.88418 0.0
0.0 0.0 0.0 0.0 2.02802 1.94064 1.89343 0.0 1.87343 1.99401 1.8743 0.0
0.0 0.0 0.0 0.0 1.95222 1.97626 1.82382 0.0 1.89026 1.91415 1.8072 0.0
0.0 0.0 0.0 0.0 1.966 1.93443 1.97959 0.0 1.83792 1.97041 1.88142 0.0
0.0 0.0 0.0 0.0 1.93964 1.98208 1.96973 0.0 1.89885 1.93729 1.92415 0.0
0.0 0.0 0.0 0.0 1.90838 1.85073 1.85006 0.0 1.81124 1.80937 1.96927 0.0
0.0 0.0 0.0 0.0 1.96286 2.00588 1.95905 0.0 1.94114 2.06056 2.07048 0.0
0.0 0.0 0.0 0.0 1.96963 1.94601 1.93763 0.0 1.81787 1.87263 1.92672 0.0
0.0 0.0 0.0 0.0 1.94261 2.0155 1.95585 0.0 1.89323 2.03475 1.92026 0.0
0.0 0.0 0.0 0.0 1.91214 1.82613 1.77517 0.0 1.78112 1.76855 1.86435 0.0
0.0 0.0 0.0 0.0 1.85316 1.82988 1.95039 0.0 1.96858 1.84781 1.96271 0.0
0.0 0.0 0.0 0.0 1.9518 2.01609 1.88358 0.0 1.94771 1.87543 1.8797 0.0
0.0 0.0 0.0 0.0 1.9258 1.94505 2.00053 0.0 1.98832 2.04024 1.99088 0.0
0.0 0.0 0.0 0.0 1.94197 1.99658 1.89026 0.0 1.9138 1.97241 1.93107 0.0
0.0 0.0 0.0 0.0 1.7748 1.81446 1.74582 0.0 1.85768 1.79143 1.76257 0.0
0.0 0.0 0.0 0.0 1.88064 2.03309 1.9782 0.0 1.99766 2.04717 1.94363 0.0
0.0 0.0 0.0 0.0 1.8881 1.90374 1.85172 0.0 1.96094 1.88883 1.81727 0.0
0.0 0.0 0.0 0.0 1.76087 1.77323 1.80962 0.0 1.78611 1.82289 1.81851 0.0
0.0 0.0 0.0 0.0 1.77862 1.76882 1.76958 0.0 1.75578 1.84776 1.83845 0.0
0.0 0.0 0.0 0.0 1.76507 1.76936 1.85069 0.0 1.78376 1.85401 1.84398 0.0
0.0 0.0 0.0 0.0 2.0676 1.96491 1.91646 0.0 1.93559 1.95909 2.0118 0.0
0.0 0.0 0.0 0.0 1.832 1.85083 1.93754 0.0 1.90669 1.94096 1.89405 0.0
0.0 0.0 0.0 0.0 1.88356 1.82344 1.92962 0.0 1.89222 1.91494 1.83065 0.0
0.0 0.0 0.0 0.0 1.87711 1.89147 1.77757 0.0 1.90171 1.82407 1.93272 0.0
0.0 0.0 0.0 0.0 1.99869 1.90469 1.9565 0.0 1.93387 1.89814 2.01064 0.0
0.0 0.0 0.0 0.0 1.83063 1.77516 1.84258 0.0 1.77517 1.76856 1.76048 0.0
0.0 0.0 0.0 0.0 1.88821 1.8529 1.98042 0.0 1.99142 1.92368 2.00571 0.0
0.0 0.0 0.0 0.0 2.00042 1.9066 2.01741 0.0 1.97184 1.91933 1.94668 0.0
0.0 0.0 0.0 0.0 1.97881 1.92276 1.85837 0.0 1.98863 1.91279 1.91275 0.0
0.0 0.0 0.0 0.0 1.76094 1.82522 1.7713 0.0 1.92596 1.88405 1.9006 0.0
0.0 0.0 0.0 0.0 1.99553 2.04389 1.9895 0.0 1.98618 1.95283 2.03477 0.0
0.0 0.0 0.0 0.0 1.89669 1.91972 1.92199 0.0 1.85163 1.93091 1.99766 0.0
0.0 0.0 0.0 0.0 1.90415 1.81792 1.84054 0.0 1.88354 1.76471 1.92664 0.0
0.0 0.0 0.0 0.0 1.83469 1.91454 1.83159 0.0 1.78885 1.88613 1.93402 0.0
0.0 0.0 0.0 0.0 1.75483 1.85081 1.72666 0.0 1.77651 1.87624 1.82629 0.0
0.0 0.0 0.0 0.0 1.76719 1.82552 1.77187 0.0 1.85654 1.82507 1.74625 0.0
0.0 0.0 0.0 0.0 2.02511 2.0482 2.01918 0.0 2.06655 2.05338 1.95466 0.0
0.0 0.0 0.0 0.0 1.87049 1.89302 1.7758 0.0 1.82928 1.81542 1.80513 0.0
0.0 0.0 0.0 0.0 1.95705 1.90417 2.04296 0.0 2.02675 1.98126 1.8929 0.0
0.0 0.0 0.0 0.0 1.79156 1.74409 1.85661 0.0 1.81654 1.83022 1.89818 0.0
0.0 0.0 0.0 0.0 1.8215 1.81379 1.94113 0.0 1.85929 1.83889 1.84621 0.0
0.0 0.0 0.0 0.0 1.9853 1.9269 1.96035 0.0 1.90586 1.83342 1.88547 0.0
0.0 0.0 0.0 0.0 1.74351 1.80382 1.86848 0.0 1.87092 1.89493 1.74434 0.0
0.0 0.0 0.0 0.0 1.8255 1.83415 1.83881 0.0 1.75301 1.82723 1.86837 0.0
0.0 0.0 0.0 0.0 2.05326 1.87912 1.88466 0.0 1.98606 1.90698 1.94403 0.0
0.0 0.0 0.0 0.0 1.86322 1.9017 1.90866 0.0 1.85613 1.81656 1.85576 0.0
0.0 0.0 0.0 0.0 1.87962 1.86971 1.87736 0.0 1.93962 1.87465 1.92967 0.0
0.0 0.0 0.0 0.0 1.83087 1.78256 1.83218 0.0 1.94969 1.94071 1.86095 0.0
0.0 0.0 0.0 0.0 2.00336 1.91269 2.02843 0.0 2.00371 1.92419 1.92175 0.0
0.0 0.0 0.0 0.0 2.02836 2.05125 2.04171 0.0 2.01778 1.90723 1.9839 0.0
0.0 0.0 0.0 0.0 2.02864 1.91219 1.95763 0.0 1.93855 1.88602 1.96219 0.0
0.0 0.0 0.0 0.0 1.92608 1.89645 2.012 0.0 2.05242 1.97871 2.02772 0.0
0.0 0.0 0.0 0.0 1.86433 1.76639 1.82574 0.0 1.82764 1.8079 1.78163 0.0
0.0 0.0 0.0 0.0 1.89307 1.97177 1.91139 0.0 2.01092 1.95354 1.92525 0.0
0.0 0.0 0.0 0.0 1.76848 1.8644 1.93265 0.0 1.79172 1.89152 1.92152 0.0
0.0 0.0 0.0 0.0 2.03146 1.98404 1.98172 0.0 1.95883 2.00443 2.01853 0.0
0.0 0.0 0.0 0.0 1.81873 1.82333 1.73523 0.0 1.82014 1.73849 1.74837 0.0
0.0 0.0 0.0 0.0 2.02332 1.86415 1.86911 0.0 1.95888 1.86581 1.97688 0.0
0.0 0.0 0.0 0.0 1.83264 1.80229 1.85804 0.0 1.82022 1.9519 1.81582 0.0
0.0 0.0 0.0 0.0 1.96365 1.93255 1.84559 0.0 1.92544 1.83288 1.90949 0.0
0.0 0.0 0.0 0.0 1.81571 1.77375 1.86741 0.0 1.78742 1.90124 1.88286 0.0
0.0 0.0 0.0 0.0 1.93648 1.81653 1.83852 0.0 1.83607 1.83196 1.8136 0.0
0.0 0.0 0.0 0.0 2.04645 1.99956 1.98527 0.0 1.91309 1.86802 2.04564 0.0
0.0 0.0 0.0 0.0 1.8882 1.92254 1.87487 0.0 1.93035 2.02488 2.00874 0.0
0.0 0.0 0.0 0.0 1.89442 1.81229 1.84243 0.0 1.93945 1.83762 1.92985 0.0
0.0 0.0 0.0 0.0 1.83074 1.8306 1.91964 0.0 1.7817 1.77786 1.80995 0.0
0.0 0.0 0.0 0.0 1.94299 1.99913 1.91648 0.0 1.9338 1.86633 1.87908 0.0
0.0 0.0 0.0 0.0 1.84418 1.82255 1.82267 0.0 1.8425 1.89183 1.77487 0.0
0.0 0.0 0.0 0.0 1.88107 1.9468 1.94524 0.0 1.83373 1.84222 1.95149 0.0
0.0 0.0 0.0 0.0 1.98029 1.88515 1.89242 0.0 2.01846 1.98232 1.891 0.0
0.0 0.0 0.0 0.0 1.85537 1.86145 1.83175 0.0 1.93872 1.8774 1.77361 0.0
0.0 0.0 0.0 0.0 1.90914 1.85434 1.93672 0.0 1.82828 1.85663 1.91321 0.0
0.0 0.0 0.0 0.0 2.07784 2.00129 1.9449 0.0 1.98617 2.04206 2.05839 0.0
0.0 0.0 0.0 0.0 1.77301 1.82061 1.78084 0.0 1.8818 1.87206 1.8436 0.0
0.0 0.0 0.0 0.0 1.83392 1.90754 1.81597 0.0 1.80705 1.81516 1.7692 0.0
0.0 0.0 0.0 0.0 1.99294 1.96027 1.87685 0.0 1.86253 1.89013 1.92461 0.0
0.0 0.0 0.0 0.0 1.95577 1.87482 1.97341 0.0 1.82239 1.89147 1.88946 0.0
0.0 0.0 0.0 0.0 1.87967 1.90817 1.75359 0.0 1.83376 1.87989 1.74442 0.0
0.0 0.0 0.0 0.0 1.91322 1.91041 2.04794 0.0 1.98648 2.02881 1.97817 0.0
0.0 0.0 0.0 0.0 1.84815 1.95182 1.86235 0.0 1.87963 1.82817 1.89576 0.0
0.0 0.0 0.0 0.0 1.87363 1.97645 1.94339 0.0 2.01255 1.98918 1.95086 0.0
0.0 0.0 0.0 0.0 1.93506 1.95457 1.90687 0.0 2.0201 1.96314 1.90338 0.0
0.0 0.0 0.0 0.0 2.06016 2.00902 1.97542 0.0 1.96273 2.01237 1.95692 0.0
0.0 0.0 0.0 0.0 1.85261 1.87726 1.72507 0.0 1.85914 1.76303 1.8346 0.0
0.0 0.0 0.0 0.0 1.82697 1.97049 1.89987 0.0 1.80609 1.88175 1.85361 0.0
0.0 0.0 0.0 0.0 1.76961 1.86543 1.81569 0.0 1.90471 1.77365 1.86402 0.0
0.0 0.0 0.0 0.0 1.93555 1.91367 1.9344 0.0 1.98065 1.96958 1.838 0.0
0.0 0.0 0.0 0.0 1.83416 1.92944 1.97899 0.0 1.87208 1.83392 1.87115 0.0
0.0 0.0 0.0 0.0 1.99066 1.92946 1.98332 0.0 2.00651 1.91739 1.94114 0.0
0.0 0.0 0.0 0.0 1.88604 1.87153 1.88885 0.0 1.82179 1.9057 1.80006 0.0
0.0 0.0 0.0 0.0 1.81652 1.93592 1.82056 0.0 1.80745 1.91827 1.80064 0.0
0.0 0.0 0.0 0.0 1.84268 1.82478 1.84923 0.0 1.94943 1.97068 1.8392 0.0
0.0 0.0 0.0 0.0 1.88002 1.80111 1.95144 0.0 1.84704 1.81364 1.79508 0.0
0.0 0.0 0.0 0.0 1.8884 1.89302 1.85637 0.0 1.72955 1.87938 1.86823 0.0
0.0 0.0 0.0 0.0 1.86818 1.96198 1.8154 0.0 1.89308 1.90631 1.8049 0.0
0.0 0.0 0.0 0.0 1.97772 1.85793 1.92045 0.0 2.02522 1.90913 2.00683 0.0
0.0 0.0 0.0 0.0 1.89811 1.80661 1.73852 0.0 1.79736 1.81195 1.80758 0.0
0.0 0.0 0.0 0.0 1.96887 1.97253 1.81809 0.0 1.96708 1.9365 1.93483 0.0
0.0 0.0 0.0 0.0 1.93655 1.86624 1.98087 0.0 1.86998 1.97503 1.9978 0.0
0.0 0.0 0.0 0.0 1.82012 1.91519 1.77822 0.0 1.82242 1.94166 1.90656 0.0
0.0 0.0 0.0 0.0 1.95784 1.83928 1.91654 0.0 1.89619 1.84683 1.89116 0.0
0.0 0.0 0.0 0.0 1.8878 1.98315 1.93824 0.0 1.95715 1.98305 1.98877 0.0
0.0 0.0 0.0 0.0 1.89913 1.84747 1.9484 0.0 2.01313 1.88802 1.97392 0.0
0.0 0.0 0.0 0.0 1.7869 1.81681 1.83217 0.0 1.7926 1.89584 1.86169 0.0
0.0 0.0 0.0 0.0 1.90886 2.02157 1.97691 0.0 1.93109 2.03802 1.99306 0.0
0.0 0.0 0.0 0.0 1.94678 1.92559 1.93428 0.0 1.97515 1.94254 1.9216 0.0
0.0 0.0 0.0 0.0 1.8302 1.88796 1.89033 0.0 1.87964 1.76209 1.75539 0.0
0.0 0.0 0.0 0.0 1.86252 1.88488 1.98186 0.0 1.89629 1.90595 2.026 0.0
0.0 0.0 0.0 0.0 1.89203 1.89834 1.88259 0.0 1.94226 1.9713 1.97146 0.0
0.0 0.0 0.0 0.0 1.80943 1.83608 1.80922 0.0 1.73681 1.81502 1.74733 0.0
0.0 0.0 0.0 0.0 1.97132 1.97341 1.94661 0.0 1.91778 2.03295 2.05718 0.0
0.0 0.0 0.0 0.0 1.98497 1.95998 2.04668 0.0 1.97426 1.94188 1.937 0.0
0.0 0.0 0.0 0.0 1.82971 1.88488 1.7701 0.0 1.89141 1.85402 1.88487 0.0
0.0 0.0 0.0 0.0 2.02058 1.98288 2.06194 0.0 2.02788 1.98303 2.06287 0.0
0.0 0.0 0.0 0.0 1.81677 1.92667 1.91721 0.0 1.93488 1.80261 1.82129 0.0
0.0 0.0 0.0 0.0 1.86093 1.95311 1.95341 0.0 1.85452 1.9039 1.92877 0.0
0.0 0.0 0.0 0.0 1.75705 1.83966 1.7835 0.0 1.91565 1.83653 1.84549 0.0
0.0 0.0 0.0 0.0 1.84146 1.85456 1.75983 0.0 1.8671 1.82992 1.83737 0.0
0.0 0.0 0.0 0.0 1.90208 1.84087 2.01912 0.0 1.88003 1.85066 2.02094 0.0
0.0 0.0 0.0 0.0 1.8843 2.00948 2.02033 0.0 1.92703 1.92675 1.90404 0.0
0.0 0.0 0.0 0.0 2.00359 1.95034 2.02769 0.0 1.97685 1.90152 1.90182 0.0
0.0 0.0 0.0 0.0 1.83052 1.87269 1.92352 0.0 1.84466 1.95967 1.86479 0.0
0.0 0.0 0.0 0.0 1.94264 1.99388 1.85808 0.0 1.90284 1.96262 1.89616 0.0
0.0 0.0 0.0 0.0 1.9588 1.85818 1.9707 0.0 1.98776 2.00303 1.92965 0.0
0.0 0.0 0.0 0.0 1.93887 1.85301 1.85653 0.0 1.89865 1.787 1.90826 0.0
0.0 0.0 0.0 0.0 1.80236 1.79528 1.80969 0.0 1.82728 1.90985 1.76983 0.0
0.0 0.0 0.0 0.0 1.93189 1.89734 2.00495 0.0 2.05992 1.99483 1.95572 0.0
0.0 0.0 0.0 0.0 1.90949 1.86565 1.88997 0.0 1.91091 1.94934 1.87284 0.0
0.0 0.0 0.0 0.0 2.06167 2.07528 2.06627 0.0 1.94222 1.91952 1.9505 0.0
0.0 0.0 0.0 0.0 1.87713 1.80412 1.73731 0.0 1.7928 1.84503 1.8077 0.0
0.0 0.0 0.0 0.0 2.00072 1.89369 1.87999 0.0 1.89468 2.04902 2.01574 0.0
0.0 0.0 0.0 0.0 1.81083 1.90148 1.83231 0.0 1.83125 1.81188 1.78479 0.0
0.0 0.0 0.0 0.0 1.96257 1.96014 1.81967 0.0 1.80276 1.94765 1.85413 0.0
0.0 0.0 0.0 0.0 1.92063 1.95791 2.0037 0.0 1.94951 1.86941 1.9866 0.0
0.0 0.0 0.0 0.0 1.97001 1.93715 1.99941 0.0 2.0174 1.99746 1.93985 0.0
0.0 0.0 0.0 0.0 2.02465 2.06712 2.05513 0.0 1.99301 1.93976 2.04661 0.0
0.0 0.0 0.0 0.0 1.79493 1.76536 1.84071 0.0 1.87055 1.77114 1.85294 0.0
0.0 0.0 0.0 0.0 1.85379 1.92147 1.90051 0.0 1.86676 1.84198 1.90376 0.0
0.0 0.0 0.0 0.0 1.86511 1.85447 1.91353 0.0 1.90509 1.77984 1.86825 0.0
0.0 0.0 0.0 0.0 1.91336 1.78472 1.89686 0.0 1.86922 1.75323 1.83755 0.0
0.0 0.0 0.0 0.0 1.91909 1.99945 1.84891 0.0 1.87538 1.94216 1.8395 0.0
0.0 0.0 0.0 0.0 1.79294 1.88987 1.81761 0.0 1.82856 1.80572 1.78562 0.0
0.0 0.0 0.0 0.0 1.94199 1.87836 1.82756 0.0 1.84979 1.92449 1.9436 0.0
0.0 0.0 0.0 0.0 1.87283 1.8861 1.88904 0.0 1.90264 1.94432 1.96641 0.0
0.0 0.0 0.0 0.0 1.99703 1.87581 1.88922 0.0 1.88682 1.87673 1.88506 0.0
0.0 0.0 0.0 0.0 1.84022 1.75034 1.77346 0.0 1.80848 1.83723 1.8477 0.0
0.0 0.0 0.0 0.0 1.9575 1.85047 1.96677 0.0 1.98883 1.90967 1.98347 0.0
0.0 0.0 0.0 0.0 2.04395 1.9547 1.95482 0.0 1.96959 1.90147 1.88221 0.0
0.0 0.0 0.0 0.0 1.85291 1.89898 1.86466 0.0 1.94933 1.97158 1.96598 0.0
0.0 0.0 0.0 0.0 1.9466 1.86509 1.91482 0.0 1.90611 1.90109 1.83501 0.0
0.0 0.0 0.0 0.0 1.85277 1.92393 1.93299 0.0 1.85014 1.8051 1.81147 0.0
0.0 0.0 0.0 0.0 1.8067 1.85919 1.79494 0.0 1.77928 1.9058 1.9023 0.0
0.0 0.0 0.0 0.0 1.87576 1.8358 1.85872 0.0 1.90996 1.95035 1.91687 0.0
0.0 0.0 0.0 0.0 1.95871 1.95816 1.92328 0.0 1.87382 1.81262 1.90703 0.0
0.0 0.0 0.0 0.0 1.89358 1.87178 1.96339 0.0 1.91224 2.02652 2.02065 0.0
0.0 0.0 0.0 0.0 1.96017 1.85238 1.93006 0.0 1.83176 1.90202 1.88835 0.0
0.0 0.0 0.0 0.0 1.87241 1.89682 1.79538 0.0 1.80491 1.82897 1.8352 0.0
0.0 0.0 0.0 0.0 1.75896 1.78164 1.80213 0.0 1.7625 1.76375 1.81306 0.0
0.0 0.0 0.0 0.0 1.96745 2.02125 1.86463 0.0 1.91999 1.96475 1.88687 0.0
0.0 0.0 0.0 0.0 2.02215 2.02213 2.00054 0.0 2.05118 2.03634 1.88071 0.0
0.0 0.0 0.0 0.0 1.81983 1.80268 1.81758 0.0 1.85485 1.92456 1.8272 0.0
0.0 0.0 0.0 0.0 1.81817 1.98071 1.98178 0.0 1.81127 1.94657 1.81626 0.0
0.0 0.0 0.0 0.0 1.95957 1.96255 1.82166 0.0 1.97789 1.89036 1.95713 0.0
0.0 0.0 0.0 0.0 2.02877 1.91854 1.93642 0.0 1.96313 1.95238 1.96005 0.0
0.0 0.0 0.0 0.0 1.95332 1.95485 1.9661 0.0 1.85169 1.93258 1.84468 0.0
0.0 0.0 0.0 0.0 1.8386 1.78728 1.83488 0.0 1.79014 1.78891 1.75675 0.0
0.0 0.0 0.0 0.0 1.93098 1.92917 1.85252 0.0 1.9574 1.98132 2.00131 0.0
0.0 0.0 0.0 0.0 1.73884 1.75003 1.86786 0.0 1.80272 1.79683 1.77374 0.0
0.0 0.0 0.0 0.0 1.79171 1.79093 1.79653 0.0 1.94905 1.88357 1.88754 0.0
0.0 0.0 0.0 0.0 1.98085 1.94815 1.94753 0.0 1.98674 1.96465 1.85073 0.0
0.0 0.0 0.0 0.0 1.91993 1.94158 1.99748 0.0 1.97089 2.00097 2.01638 0.0
0.0 0.0 0.0 0.0 2.08066 2.0257 1.99612 0.0 1.94713 1.94902 1.91715 0.0
0.0 0.0 0.0 0.0 1.78475 1.88118 1.85548 0.0 1.80037 1.75885 1.87719 0.0
0.0 0.0 0.0 0.0 1.71872 1.86292 1.80683 0.0 1.83393 1.80641 1.75805 0.0
0.0 0.0 0.0 0.0 1.85559 1.7531 1.88951 0.0 1.84676 1.74954 1.85137 0.0
0.0 0.0 0.0 0.0 1.81854 1.83883 1.79337 0.0 1.87697 1.79464 1.78711 0.0
0.0 0.0 0.0 0.0 1.98343 1.93015 1.94878 0.0 2.00205 1.89696 1.86128 0.0
0.0 0.0 0.0 0.0 1.78458 1.92038 1.81869 0.0 1.76653 1.87304 1.85549 0.0
0.0 0.0 0.0 0.0 1.89863 2.04676 1.88768 0.0 2.05378 2.03003 1.975 0.0
0.0 0.0 0.0 0.0 2.03497 1.96112 2.03391 0.0 1.96566 1.87428 2.00587 0.0
0.0 0.0 0.0 0.0 1.85162 1.93059 1.83974 0.0 1.8145 1.85329 1.83713 0.0
0.0 0.0 0.0 0.0 1.96682 1.88031 1.91563 0.0 1.90033 1.91453 1.86316 0.0
0.0 0.0 0.0 0.0 1.95279 1.837 1.88063 0.0 1.85016 1.97349 1.90702 0.0
0.0 0.0 0.0 0.0 1.94926 1.86004 1.8638 0.0 1.82406 1.83448 1.83772 0.0
0.0 0.0 0.0 0.0 1.98671 2.04243 1.98844 0.0 2.01206 1.95642 1.89361 0.0
0.0 0.0 0.0 0.0 1.85562 1.8351 1.79958 0.0 1.87009 1.7598 1.89435 0.0
0.0 0.0 0.0 0.0 1.88581 2.01683 2.03555 0.0 2.03306 1.97196 1.89274 0.0
0.0 0.0 0.0 0.0 1.81044 1.80225 1.84049 0.0 1.82531 1.96303 1.85518 0.0
0.0 0.0 0.0 0.0 1.91981 1.89596 1.88036 0.0 1.82676 1.88203 1.88039 0.0
0.0 0.0 0.0 0.0 1.93625 1.85819 1.89984 0.0 1.87099 1.91305 1.87044 0.0
0.0 0.0 0.0 0.0 1.81096 1.93446 1.91867 0.0 1.96156 1.8416 1.79164 0.0
0.0 0.0 0.0 0.0 1.90965 1.96877 1.93542 0.0 1.89436 1.89215 2.06594 0.0
0.0 0.0 0.0 0.0 1.90665 1.85658 1.89342 0.0 1.87024 1.91492 1.82303 0.0
0.0 0.0 0.0 0.0 1.83635 1.828 1.78951 0.0 1.81565 1.81087 1.78787 0.0
0.0 0.0 0.0 0.0 2.05597 1.90631 1.87789 0.0 1.90728 1.99967 1.90226 0.0
0.0 0.0 0.0 0.0 1.84939 1.78913 1.76411 0.0 1.86818 1.83288 1.78618 0.0
0.0 0.0 0.0 0.0 1.78897 1.88093 1.90556 0.0 1.84047 1.90057 1.78711 0.0
0.0 0.0 0.0 0.0 1.82673 1.85071 1.88912 0.0 1.80853 1.83865 1.93478 0.0
0.0 0.0 0.0 0.0 1.78068 1.77953 1.87563 0.0 1.81006 1.89039 1.78794 0.0
0.0 0.0 0.0 0.0 1.89877 1.85011 1.85494 0.0 1.85133 1.87554 1.87862 0.0
0.0 0.0 0.0 0.0 1.96294 1.94551 1.86219 0.0 1.85548 1.89417 1.90955 0.0
0.0 0.0 0.0 0.0 1.81722 1.88878 1.86953 0.0 1.8869 1.74726 1.78411 0.0
0.0 0.0 0.0 0.0 1.82809 1.79093 1.8071 0.0 1.86552 1.78169 1.82341 0.0
0.0 0.0 0.0 0.0 1.97875 1.88695 1.96351 0.0 1.88476 1.86841 2.01669 0.0
0.0 0.0 0.0 0.0 1.79643 1.95861 1.93296 0.0 1.92769 1.8653 1.90565 0.0
0.0 0.0 0.0 0.0 1.84297 1.90404 1.81917 0.0 1.87378 1.94198 1.93016 0.0
0.0 0.0 0.0 0.0 2.01257 2.0125 1.91107 0.0 1.96168 1.92593 1.94541 0.0
0.0 0.0 0.0 0.0 1.98069 1.92781 1.81754 0.0 1.86695 1.89003 1.91617 0.0
0.0 0.0 0.0 0.0 1.84534 1.77711 1.86819 0.0 1.7863 1.80604 1.75831 0.0
0.0 0.0 0.0 0.0 2.00798 1.83237 1.88966 0.0 1.90886 1.88735 1.98216 0.0
0.0 0.0 0.0 0.0 1.78504 1.75902 1.82323 0.0 1.82776 1.91879 1.82554 0.0
0.0 0.0 0.0 0.0 1.78791 1.92603 1.85826 0.0 1.8626 1.85393 1.95293 0.0
0.0 0.0 0.0 0.0 1.87339 1.923 1.98496 0.0 1.88939 1.83634 1.84835 0.0
0.0 0.0 0.0 0.0 1.79846 1.85313 1.80385 0.0 1.84185 1.81165 1.83696 0.0
0.0 0.0 0.0 0.0 1.86746 1.82437 1.85496 0.0 1.81062 1.90844 1.8623 0.0
0.0 0.0 0.0 0.0 1.87697 1.89039 1.84959 0.0 1.83781 1.86513 1.90672 0.0
0.0 0.0 0.0 0.0 1.92858 1.80836 1.8032 0.0 1.90693 1.75781 1.85532 0.0
0.0 0.0 0.0 0.0 1.8491 1.9086 1.8729 0.0 1.89177 1.83839 1.87739 0.0
0.0 0.0 0.0 0.0 1.82046 1.81211 1.89917 0.0 1.82564 1.89532 1.78884 0.0
0.0 0.0 0.0 0.0 2.05881 1.9826 1.9194 0.0 2.04154 2.03567 2.02215 0.0
0.0 0.0 0.0 0.0 1.88249 1.98597 1.89426 0.0 1.99523 1.97842 1.97693 0.0
0.0 0.0 0.0 0.0 1.96385 1.87965 1.9906 0.0 2.00097 1.97111 1.96519 0.0
0.0 0.0 0.0 0.0 1.86011 1.90376 1.80191 0.0 1.91548 1.84479 1.90503 0.0
0.0 0.0 0.0 0.0 1.93396 1.95842 2.00724 0.0 1.95711 1.93484 1.96548 0.0
0.0 0.0 0.0 0.0 1.91529 1.96038 1.87244 0.0 1.95521 1.94704 1.86768 0.0
0.0 0.0 0.0 0.0 1.931 1.91534 1.92654 0.0 1.96473 1.84121 1.945 0.0
0.0 0.0 0.0 0.0 1.85932 2.03638 2.02345 0.0 1.93757 1.91892 2.03539 0.0
0.0 0.0 0.0 0.0 2.00778 2.04882 1.95057 0.0 2.03272 1.89827 1.9622 0.0
0.0 0.0 0.0 0.0 1.86114 1.85822 1.86854 0.0 1.83236 1.87158 1.9385 0.0
0.0 0.0 0.0 0.0 1.96607 1.96356 1.93403 0.0 2.03025 1.88093 1.96201 0.0
0.0 0.0 0.0 0.0 1.99283 2.00853 1.99008 0.0 2.04882 1.90343 1.91621 0.0
0.0 0.0 0.0 0.0 1.92 1.84354 1.83287 0.0 1.8534 1.91658 1.79974 0.0
0.0 0.0 0.0 0.0 1.95256 1.85309 1.93689 0.0 1.82667 1.8713 1.96331 0.0
0.0 0.0 0.0 0.0 1.73927 1.88427 1.8038 0.0 1.86327 1.80236 1.8592 0.0
0.0 0.0 0.0 0.0 1.89375 1.88566 1.80402 0.0 1.77229 1.77041 1.93079 0.0
0.0 0.0 0.0 0.0 1.78431 1.90025 1.87027 0.0 1.78122 1.8805 1.81783 0.0
0.0 0.0 0.0 0.0 1.94265 1.89814 2.01401 0.0 1.95123 1.96382 1.99022 0.0
0.0 0.0 0.0 0.0 1.8689 1.74909 1.81773 0.0 1.88624 1.85145 1.85317 0.0
0.0 0.0 0.0 0.0 1.79227 1.87337 1.83674 0.0 1.77376 1.88787 1.74874 0.0
0.0 0.0 0.0 0.0 1.89345 1.98132 1.9286 0.0 1.86356 1.88854 1.91632 0.0
0.0 0.0 0.0 0.0 1.82386 1.85712 1.77353 0.0 1.76608 1.81769 1.87155 0.0
