-16.5127611
-16.54389245
-16.57492549
-16.81770025
-16.42052761
-16.32689741
-16.66039458
-16.35126716
-16.29179281
-16.60550896
-16.63252698
-16.82818436
-16.38732601
-16.3184649
-16.35439069
-16.46449836
-16.53678008
-16.6592932
-16.5968995
-16.58337787
-16.74664079
-16.24194351
-16.56426542
-16.44555549
-16.55961953
-16.66447204
-16.47964909
-16.34185649
-16.45310834
-16.66816464
-16.3627567
-16.74644137
-16.84362622
-16.66702523
-16.80093993
-16.23596072
-16.6055782
-16.45664615
-16.63572146
-16.44808944
-16.75735736
-16.54350973
-16.37043342
-16.61614698
-16.48195239
-16.23756159
-16.63335719
-16.43133395
-16.69366367
-16.34090246
-16.46986003
-16.10674168
-16.17134236
-16.35451685
-16.48318367
-16.82048234
-16.63112151
-16.14888258
-16.5615463
-16.44205239
-16.48039177
-16.7049701
-16.66878061
-16.30144381
-16.26419175
-16.48963953
-16.27835734
-16.47599557
-16.46098477
-16.5475091
-16.35172113
-16.56559542
-16.55352529
-16.82788008
-16.59098739
-16.54981933
-16.83670524
-16.36522845
-16.51798221
-16.49451531
-16.73450659
-16.54248895
-16.71512735
-16.6895023
-16.41648907
-16.61055557
-16.76934908
-16.16657909
-16.72426975
-16.49402003
-16.56548961
-16.60814023
-16.35276474
-16.37776312
-16.74672999
-16.50055227
-16.29032493
-16.23161283
-16.17509445
-16.72362129
-16.33901346
-16.59270199
-16.73752779
-16.32556495
-16.63548101
-16.71406162
-16.74431074
-16.79265525
-15.95366429
-16.71121004
-16.48290753
-16.43380996
-16.47496972
-16.55222799
-16.6419226
-16.71796253
-16.48122812
-16.58648539
-16.84023506
-16.39983179
-16.59679531
-16.46241754
-16.54212183
-16.58214382
-16.58951188
-16.29730308
-16.36422326
-16.67608558
-16.18425502
-16.48226742
-16.55505336
-16.48048035
-16.67163808
-16.57845858
-16.53376738
-16.24702251
-16.73109192
-16.61970134
-16.50797335
-16.57550112
-16.59606868
-16.26428555
-16.67766244
-16.17341979
-16.33774639
-16.41000691
-16.75318701
-16.54643449
-16.53330334
-16.42867331
-16.12963247
-16.6971487
-16.78331534
-16.66958538
-16.48726459
-16.67098893
-16.54595439
-16.50516874
-16.65494949
-16.52900978
-16.22099461
-16.54044494
-16.42559698
-16.58030743
-16.72862869
-16.5609081
-16.34876749
-16.74486036
-16.64587037
-16.47560858
-16.72905137
-16.8092126
-16.57692401
-16.52898012
-16.27411353
-16.59242056
-16.61692229
-16.55102899
-16.30653966
-16.64370876
-16.62197278
-16.55449866
-16.44048475
-16.76888954
-16.54484141
-16.4322524
-16.21979295
-16.63299794
-16.26677045
-16.32213413
-16.80965944
-16.56766627
-16.658591
-16.26310219
-16.39023312
-16.61063882
-16.69959234
-16.66488269
-16.81785683
-16.38674278
-16.37264351
-16.29297406
-16.81201111
-16.78876038
-16.71797104
-16.65944561
-16.32282325
-16.73944995
-16.86032728
-16.41167838
-16.33696796
-16.71795012
-16.82578505
-16.64029947
-16.72708111
-16.68053417
-16.29522903
-16.27168333
-16.5525895
-16.52877076
-16.51452959
-16.2928888
-16.65891561
-16.71965587
-16.6244573
-16.65488726
-16.64988377
-16.72316128
-16.89456758
-16.2815515
-16.12236686
-16.56012708
-16.19426376
-16.41124769
-16.19101146
-16.52094262
-16.48382263
-16.73165615
-16.51699212
-16.6511465
-16.56777945
-16.41477877
-16.33601643
-16.57220111
-16.39689438
-16.3542448
-16.35523701
-16.66737036
-16.29569629
-16.63044385
-16.54574058
-16.32194942
-16.29617491
-16.60987069
-16.67277135
-16.53520682
