0.237154 0.259408 0.29827 0.250003 -0.519526 -0.273828 -0.267684 0.258858 -0.304183 -0.219472 0.00126 0.279741
0.410728 0.593948 0.495227 0.472301 -0.859893 -0.830127 -0.309763 0.521935 -0.114604 -0.573267 -0.25599 0.449504
0.977847 1.097789 0.573188 0.828573 -0.782634 -0.069058 -0.497599 1.048919 -1.15953 -1.308821 -1.364074 0.6554
0.279317 0.234804 0.313518 0.276428 -0.19253 -0.267941 -0.344326 0.24373 -0.365057 -0.211419 -0.286004 0.31948
1.138641 1.180512 1.626181 1.114118 -1.413629 -1.392559 -1.510691 1.243736 -1.761148 -0.742068 -1.010619 1.527526
0.367392 0.454615 0.044914 0.419777 -0.587328 -0.065461 -0.725647 0.515881 -0.020868 -0.061521 -0.383168 0.041415
0.749055 0.919935 0.220802 0.753002 -0.885547 -0.223829 -0.915608 0.960591 -0.210326 -0.586449 -0.994979 0.213354
0.301997 0.078138 0.330216 0.346621 -0.114786 -0.568031 -0.029745 0.065354 -0.131831 -0.618873 -0.028705 0.369646
1.643596 1.735653 0.814354 1.725858 -1.81544 -1.208676 -1.939977 1.759921 -0.380186 -1.429477 -1.680134 0.774508
0.159202 0.266616 0.247145 0.159137 -0.214822 -0.282291 -0.099685 0.26573 -0.208373 -0.218654 -0.317524 0.243519
0.791018 0.788271 0.965897 0.758613 -0.478804 -0.678462 -0.111983 0.745983 -1.324542 -1.437647 -1.055451 1.037107
0.694442 0.101108 0.246958 0.694792 -0.151747 -0.301972 -1.165953 0.121614 -0.168901 -0.22328 -0.070975 0.223915
0.758493 0.497511 0.614313 0.836517 -0.668227 -0.776025 -0.677283 0.467103 -0.468787 -0.917727 -0.296388 0.6305
0.072195 0.371217 0.301711 0.07572 -0.544247 -0.107673 -0.040451 0.382636 -0.490093 -0.107464 -0.209606 0.296054
0.369662 0.409282 0.40251 0.346652 -0.392322 -0.183691 -0.094213 0.396146 -0.64465 -0.622101 -0.413106 0.42583
0.741982 0.279261 0.501998 0.684235 -0.463964 -0.122886 -0.848309 0.326186 -0.805871 -0.577907 -0.141482 0.426759
0.438373 0.518219 0.317223 0.481783 -0.879321 -0.505551 -0.215601 0.484781 -0.101064 -0.704555 -0.123679 0.289392
0.468138 0.665524 1.034237 0.556082 -1.129137 -1.373257 -0.171155 0.545734 -0.636261 -0.853065 -0.082121 0.975282
0.927308 0.660327 0.424854 1.017803 -0.951711 -0.732803 -1.008281 0.675978 -0.114137 -0.936829 -0.384593 0.422085
0.624039 0.539154 0.583232 0.666786 -0.598164 -0.801303 -0.718425 0.525339 -0.350953 -0.572399 -0.466329 0.569025
0.29502 1.139054 0.305482 0.286866 -0.928286 -0.437623 -0.432974 1.136141 -0.165153 -0.148911 -1.346909 0.297294
0.572289 0.609432 0.347094 0.509923 -0.313878 -0.525068 -0.282001 0.503597 -0.235519 -0.800211 -0.799151 0.413493
0.853322 1.276987 0.781379 0.971306 -1.498709 -1.21731 -1.153152 1.239063 -0.241764 -0.671475 -1.017341 0.677695
0.61274 0.372863 0.437345 0.675843 -0.401962 -0.791828 -0.41808 0.31529 -0.144703 -0.870504 -0.286192 0.499186
0.304748 1.620052 0.716044 0.326353 -1.857889 -0.927771 -0.348897 1.597363 -0.453578 -0.282204 -1.359526 0.665305
0.649096 0.622654 0.628206 0.547442 -0.273313 -0.129392 -0.940522 0.702438 -1.133179 -0.256016 -1.051779 0.634364
0.041276 0.214723 0.47589 0.04289 -0.363346 -0.623194 -0.057741 0.189427 -0.3151 -0.026425 -0.040804 0.462403
0.620884 0.367825 0.379328 0.57444 -0.203778 -0.289769 -0.509887 0.348553 -0.48418 -0.685436 -0.5126 0.394621
0.240788 0.278991 0.339357 0.25516 -0.293844 -0.530384 -0.064596 0.250493 -0.156403 -0.431353 -0.23564 0.34743
0.343699 0.354508 1.110761 0.34497 -0.406584 -0.912009 -0.128491 0.340904 -1.323012 -0.560178 -0.288828 1.12426
0.68031 0.242154 0.6685 0.714172 -0.079326 -0.814353 -0.507663 0.217385 -0.597253 -0.886818 -0.380213 0.743106
0.462759 0.337778 0.906748 0.468615 -0.561521 -0.723494 -0.353289 0.327306 -1.074227 -0.578085 -0.103563 0.890973
0.593439 0.329876 0.233244 0.590222 -0.077921 -0.167098 -0.538228 0.323661 -0.282911 -0.645434 -0.575616 0.216765
0.828654 0.826557 0.269401 0.79432 -0.499258 -0.340261 -0.410495 0.791955 -0.19844 -1.212479 -1.119254 0.2693
0.904662 0.439356 0.161221 0.879987 -0.08643 -0.087264 -0.876014 0.419718 -0.212551 -0.908635 -0.772644 0.138593
0.150636 0.497988 0.212326 0.156454 -0.593257 -0.267503 -0.077324 0.480757 -0.135964 -0.229766 -0.385488 0.191141
1.399632 0.722398 0.86226 1.302256 -0.453897 -0.609464 -1.343745 0.714694 -1.100744 -1.358143 -0.983195 0.847948
1.687667 0.987223 1.082456 1.672321 -1.27134 -0.72414 -1.813202 1.073114 -1.354236 -1.546785 -0.788996 0.995919
0.263863 1.217858 1.128137 0.252898 -0.987304 -1.088004 -0.061924 1.239914 -1.223927 -0.454837 -1.470467 1.183794
0.251004 0.562549 0.216622 0.260327 -0.548837 -0.151829 -0.383253 0.584155 -0.290972 -0.128078 -0.597867 0.226179
0.636189 0.532392 0.31226 0.655737 -0.885283 -0.309028 -1.005669 0.545434 -0.310634 -0.286257 -0.192544 0.307403
0.806739 0.678106 0.578983 0.663807 -0.330963 -0.129873 -0.903371 0.753009 -1.054196 -0.567175 -1.100152 0.605086
0.35446 0.354309 0.253768 0.365225 -0.495938 -0.104698 -0.576422 0.394255 -0.37834 -0.143263 -0.252626 0.22927
0.333784 0.699263 0.766819 0.337902 -0.870392 -0.593827 -0.190486 0.702395 -0.92286 -0.4812 -0.531266 0.749868
0.908831 0.916702 1.305689 0.797736 -0.183741 -0.837093 -0.311327 0.971461 -1.915456 -1.39524 -1.704422 1.446859
0.318597 0.486817 0.480597 0.321024 -0.422062 -0.581202 -0.379378 0.474706 -0.378431 -0.260243 -0.539461 0.479036
0.506706 0.60622 0.244697 0.465292 -0.323746 -0.428679 -0.437637 0.5796 -0.074073 -0.534362 -0.862074 0.258055
0.590783 1.751988 1.117597 0.601788 -1.672837 -0.789858 -0.978577 1.869893 -1.507458 -0.213994 -1.949044 1.179719
0.75721 0.985703 0.629817 0.722101 -0.548916 -1.158331 -0.462448 0.893762 -0.132859 -1.016863 -1.330549 0.661372
1.067104 0.97022 1.164922 1.098092 -0.491123 -1.700379 -0.169066 0.846785 -0.735269 -1.99613 -1.325882 1.270725
0.913422 0.392537 1.425848 0.918709 -0.491619 -1.295113 -0.642716 0.366676 -1.586168 -1.189415 -0.267593 1.455433
0.493611 0.349546 0.579844 0.516758 -0.471546 -0.563847 -0.456681 0.337231 -0.582797 -0.553688 -0.215232 0.5668
0.953276 1.648146 1.910793 1.053188 -1.987568 -2.310214 -0.74603 1.500046 -1.439165 -1.260433 -1.160624 1.838585
0.590927 0.18949 0.419853 0.543172 -0.348086 -0.112852 -0.73393 0.226373 -0.657432 -0.400169 -0.067777 0.350431
1.310098 1.268117 0.524467 1.196902 -0.704292 -0.109573 -1.370658 1.280071 -0.94659 -1.136342 -1.843896 0.531695
0.761432 0.307572 0.355572 0.743493 -0.226188 -0.169769 -1.122939 0.324093 -0.522488 -0.381987 -0.405478 0.336686
0.561416 0.839324 0.775336 0.636876 -1.238945 -0.792419 -1.052304 0.878985 -0.641415 -0.145988 -0.479365 0.658497
2.201787 0.30611 1.608284 2.095738 -0.286575 -1.212099 -2.05012 0.297873 -1.974396 -2.247406 -0.317408 1.578211
1.06525 1.232646 0.596229 1.048596 -1.01423 -0.999132 -1.087369 1.187967 -0.194357 -1.026477 -1.406384 0.597259
0.113175 0.542892 0.269827 0.119169 -0.77717 -0.050078 -0.075435 0.553295 -0.490261 -0.156909 -0.319016 0.270512
1.160905 1.13735 1.396214 1.190384 -1.248619 -1.528294 -1.61138 1.169185 -1.164773 -0.739909 -1.057916 1.296852
0.643056 0.820969 0.820858 0.587771 -0.631881 -0.569482 -0.634317 0.855879 -1.10831 -0.596509 -1.044967 0.856934
0.988172 0.621278 0.751378 0.899995 -0.435417 -0.079204 -0.535942 0.609436 -1.433157 -1.352224 -0.795297 0.760982
0.339262 0.262258 0.284716 0.338103 -0.448859 -0.086681 -0.561192 0.299979 -0.444216 -0.116172 -0.113377 0.246181
0.465024 0.607555 0.783015 0.484704 -0.773158 -0.783851 -0.799072 0.629512 -0.663634 -0.150657 -0.463909 0.664471
0.279664 0.605628 0.31528 0.313321 -0.785351 -0.246479 -0.47911 0.632288 -0.363064 -0.113875 -0.452565 0.294263
0.492792 0.359832 0.377342 0.395089 -0.144512 -0.034351 -0.522112 0.407751 -0.732049 -0.365769 -0.623071 0.389059
1.0642 1.124731 0.854896 1.099655 -1.590067 -0.511641 -1.223854 1.169115 -1.141205 -0.940002 -0.70378 0.79795
0.271924 0.169986 0.502365 0.266084 -0.097098 -0.42563 -0.183602 0.174229 -0.591546 -0.354406 -0.247116 0.514811
1.525539 0.851964 0.619689 1.425439 -0.128265 -0.937193 -1.594282 0.774556 -0.342835 -1.356695 -1.498254 0.660339
0.828209 1.022388 0.724491 0.851133 -1.037646 -0.809619 -0.771292 0.977947 -0.63678 -0.90805 -0.962689 0.721908
0.100154 0.710728 1.173844 0.1136 -1.074583 -1.195826 -0.088611 0.684849 -1.133391 -0.125143 -0.320994 1.155373
0.082393 0.727166 0.299981 0.090467 -0.839897 -0.0812 -0.09975 0.75458 -0.541771 -0.073109 -0.641849 0.32299
0.804296 0.211572 0.097611 0.80417 -0.254899 -0.04634 -0.478582 0.191309 -0.154721 -1.129885 -0.147981 0.10345
0.420641 1.25796 1.219042 0.441578 -1.462657 -1.24131 -0.488594 1.23193 -1.131251 -0.373625 -1.027233 1.15352
1.517036 1.151372 0.342838 1.441079 -0.775258 -0.271414 -1.291775 1.082854 -0.417012 -1.666339 -1.458968 0.345588
0.340255 0.662907 0.293678 0.372072 -1.116849 -0.225164 -0.396003 0.669262 -0.336064 -0.316324 -0.21532 0.267549
0.271004 0.851034 0.486865 0.333973 -0.89936 -0.655253 -0.585043 0.839235 -0.247937 -0.019934 -0.790909 0.416325
0.563301 0.562392 0.36146 0.486165 -0.186577 -0.374896 -0.124114 0.47577 -0.406414 -0.925353 -0.851584 0.419851
0.846595 1.453033 1.12101 0.746914 -1.27208 -0.552572 -0.843309 1.579722 -1.794012 -0.7502 -1.760676 1.225575
0.863008 0.578116 0.46823 0.885745 -0.73527 -0.646993 -1.514283 0.631226 -0.249748 -0.23447 -0.474072 0.42851
0.136814 0.242653 0.483937 0.138288 -0.387913 -0.627992 -0.25289 0.225868 -0.322204 -0.022212 -0.080608 0.466259
0.978717 0.518311 0.744272 0.998738 -0.809628 -0.683824 -0.692039 0.496554 -0.810623 -1.285416 -0.205237 0.750176
0.336948 0.473456 0.323876 0.340869 -0.29061 -0.624078 -0.616386 0.473248 -0.015314 -0.061431 -0.656094 0.315517
0.246061 0.236351 0.301504 0.239498 -0.408971 -0.03251 -0.068807 0.231214 -0.566306 -0.416752 -0.058594 0.297311
0.922096 0.504846 1.361965 0.911673 -0.850865 -1.035002 -0.748093 0.496156 -1.666155 -1.085676 -0.150137 1.339191
0.544162 0.631328 0.187059 0.560227 -0.652033 -0.251781 -0.802196 0.663488 -0.105506 -0.302193 -0.642783 0.170228
0.427178 0.71589 0.417419 0.411863 -0.700538 -0.479496 -0.218163 0.644198 -0.365431 -0.620878 -0.65955 0.427509
0.685493 0.502404 0.900769 0.659977 -0.168965 -0.636747 -0.272662 0.509706 -1.197443 -1.072808 -0.843145 0.933421
0.88552 0.807479 1.430119 0.969991 -1.141003 -1.955025 -0.901417 0.740751 -0.870422 -0.954094 -0.407227 1.395328
0.117673 0.483648 0.276596 0.126351 -0.64353 -0.496381 -0.087197 0.462454 -0.024772 -0.156827 -0.302572 0.244557
1.094639 1.040518 0.48996 1.20879 -1.395853 -0.660362 -1.494069 1.127824 -0.267142 -0.80936 -0.77249 0.437544
0.894754 1.007871 1.661231 1.058226 -1.651194 -2.166124 -0.265647 0.839473 -1.123287 -1.687333 -0.19615 1.62818
0.820909 0.388202 0.416569 0.744944 -0.220813 -0.206919 -0.834376 0.382805 -0.598885 -0.731477 -0.550194 0.389235
0.410538 0.632092 0.953717 0.40376 -0.470804 -1.199922 -0.521163 0.609447 -0.710181 -0.293135 -0.770735 0.956385
0.812256 0.473353 0.911296 0.762964 -0.234479 -0.82905 -0.656203 0.483944 -1.051896 -0.919017 -0.722818 0.96965
0.13895 0.088277 0.307469 0.13663 -0.141407 -0.19649 -0.042477 0.082191 -0.420119 -0.233103 -0.02906 0.309139
0.362556 0.454595 0.38021 0.409478 -0.645382 -0.480927 -0.321898 0.425707 -0.250424 -0.450137 -0.23492 0.35114
0.305658 1.718374 2.014533 0.323489 -1.808475 -2.125901 -0.096923 1.652921 -1.86234 -0.532224 -1.562821 1.973708
0.780622 0.418293 0.77059 0.835141 -0.32358 -1.401729 -0.82431 0.377583 -0.168884 -0.791453 -0.472296 0.800024
0.831491 1.006439 1.850497 0.726315 -0.528699 -1.585204 -1.015862 1.129324 -2.165791 -0.541944 -1.607063 1.900498
0.944496 0.483458 0.929048 0.9396 -0.794513 -0.71869 -0.874001 0.495302 -1.098874 -1.010095 -0.184247 0.888516
0.596678 0.230553 0.579854 0.586798 -0.131671 -0.709894 -1.043273 0.243949 -0.406071 -0.140203 -0.342831 0.53611
0.239327 0.277305 0.304894 0.237262 -0.382718 -0.148466 -0.375847 0.298206 -0.443416 -0.100742 -0.192793 0.286988
1.228071 0.760424 0.796166 1.308341 -1.142147 -1.042188 -1.197705 0.758906 -0.556378 -1.338707 -0.377184 0.8024
0.843834 0.335691 0.864282 0.932876 -0.387084 -1.48464 -0.427402 0.286658 -0.33337 -1.349309 -0.235265 0.953728
0.602789 0.157135 0.440913 0.582789 -0.151564 -0.061751 -0.231062 0.143408 -0.81585 -0.954516 -0.14898 0.436687
0.765307 0.388916 0.317406 0.786535 -0.763292 -0.113374 -1.314985 0.446997 -0.479494 -0.236857 -0.072621 0.275463
1.921168 2.248852 1.265767 2.075908 -2.306427 -2.290941 -1.769768 2.006712 -0.218051 -2.227308 -1.949138 1.243225
0.545386 0.413252 1.099421 0.627735 -0.629229 -1.412195 -0.224468 0.343692 -0.80392 -0.948654 -0.127715 1.116694
0.328073 0.649969 0.419412 0.284476 -0.564448 -0.015627 -0.347086 0.717695 -0.882892 -0.265463 -0.803216 0.479107
0.55036 1.558743 0.954022 0.577041 -2.018491 -1.02514 -0.16557 1.505297 -0.822814 -0.961831 -1.045548 0.893932
0.607449 1.274126 1.343546 0.647544 -1.324748 -1.442218 -0.181126 1.160419 -1.258478 -1.073867 -1.109797 1.35715
1.071669 0.984974 0.312412 1.003571 -0.780124 -0.29197 -1.027784 0.963553 -0.340482 -1.047457 -1.168404 0.32004
0.828271 0.898716 0.829022 0.833218 -0.458284 -1.315069 -0.090672 0.7532 -0.446358 -1.570818 -1.193632 0.932405
0.268631 0.503034 0.190089 0.285761 -0.69759 -0.031441 -0.476752 0.518455 -0.34769 -0.07764 -0.323899 0.189043
1.010262 0.858827 0.977458 0.957896 -0.493706 -1.102547 -0.788539 0.807512 -0.965619 -1.179619 -1.172634 1.090708
0.515942 0.539821 0.547591 0.425593 -0.331916 -0.063326 -0.653732 0.619566 -1.052357 -0.287803 -0.827471 0.568092
0.752829 0.421011 0.227616 0.738222 -0.109789 -0.331891 -0.488494 0.389957 -0.126368 -1.002557 -0.701179 0.230643
0.750014 0.518038 0.558039 0.761583 -0.26839 -0.841945 -0.544638 0.435142 -0.362966 -0.966959 -0.68479 0.646871
0.593391 0.555147 0.658719 0.58336 -0.619668 -0.524462 -0.582162 0.572002 -0.78367 -0.594589 -0.507481 0.649414
1.005579 0.601631 1.687453 0.958267 -1.017574 -1.62351 -1.664336 0.597911 -1.599166 -0.29951 -0.181968 1.535222
0.44136 0.421299 0.16955 0.396991 -0.028252 -0.126436 -0.585101 0.418025 -0.219459 -0.25325 -0.811072 0.176345
0.956671 0.973165 0.802978 0.855707 -0.624108 -0.690482 -0.583999 0.927423 -1.013376 -1.228378 -1.276479 0.90088
0.945777 0.563811 0.664071 0.989483 -0.907027 -1.195221 -0.919305 0.568081 -0.133117 -1.015955 -0.224865 0.664267
0.473266 0.567259 0.247721 0.422066 -0.340879 -0.382885 -0.24122 0.495593 -0.140625 -0.654112 -0.721973 0.27579
0.4953 0.346439 0.414826 0.505328 -0.490556 -0.346162 -0.741552 0.388483 -0.431064 -0.259077 -0.244366 0.3624
0.450655 0.887263 1.14783 0.448751 -0.639177 -1.139284 -0.080704 0.892505 -1.206181 -0.818701 -1.140591 1.197635
0.610487 0.620349 0.536483 0.567175 -0.57608 -0.393461 -0.760719 0.698654 -0.664024 -0.416943 -0.742922 0.521001
1.100299 0.58661 1.791823 0.992377 -0.605262 -1.629195 -1.595109 0.633701 -1.825261 -0.497567 -0.615049 1.662633
1.204694 0.950285 0.992967 1.215883 -0.708069 -1.353093 -1.339741 0.907151 -0.649219 -1.080836 -1.149366 1.009345
0.842421 0.703124 1.552329 0.784437 -0.244023 -1.166444 -0.554333 0.774306 -2.000064 -1.072525 -1.233407 1.614179
0.428954 0.917043 1.11179 0.435678 -0.914499 -1.082253 -0.111613 0.891571 -1.160415 -0.753019 -0.894114 1.130877
0.521589 0.644783 0.131802 0.52078 -0.364717 -0.001877 -0.960256 0.685146 -0.257053 -0.082113 -0.965211 0.127128
0.667001 0.257089 0.667164 0.683229 -0.227208 -0.838912 -0.90043 0.263211 -0.461338 -0.449799 -0.293093 0.633086
0.234855 0.188514 0.244604 0.245261 -0.393733 -0.178511 -0.47801 0.210138 -0.279889 -0.002106 -0.00492 0.213796
1.08831 0.403486 0.462746 1.087185 -0.269161 -0.583546 -0.94931 0.375013 -0.367658 -1.226185 -0.509338 0.488458
0.46982 0.59308 0.724917 0.53421 -0.696164 -1.040559 -0.173453 0.505005 -0.420004 -0.830577 -0.40192 0.735646
0.708138 0.472598 0.378519 0.667838 -0.528983 -0.040771 -0.632299 0.486708 -0.694912 -0.743677 -0.430323 0.357164
0.510414 1.439936 1.050359 0.53772 -1.603643 -0.844516 -0.845212 1.505545 -1.240159 -0.202921 -1.341838 1.034316
1.297956 0.494839 0.748436 1.299259 -0.620796 -0.637992 -0.812299 0.456297 -0.891292 -1.784916 -0.330339 0.780848
0.431567 0.194294 0.342242 0.369965 -0.142796 -0.010492 -0.441637 0.21366 -0.650926 -0.359895 -0.265158 0.319176
0.980452 0.770535 0.731783 0.973014 -0.870007 -0.596989 -0.784247 0.748983 -0.876148 -1.169219 -0.649511 0.741353
0.357756 0.485747 0.514914 0.437608 -0.76607 -0.720985 -0.704513 0.469587 -0.195575 -0.090851 -0.189264 0.401646
0.88068 1.602906 1.012301 0.885738 -1.927113 -1.125426 -0.274173 1.495626 -0.876847 -1.492245 -1.171419 0.989972
0.492227 0.691058 0.124994 0.425768 -0.572169 -0.136116 -0.059147 0.590887 -0.122579 -0.858848 -0.709776 0.133701
0.585985 0.360146 1.031225 0.608772 -0.483059 -1.329801 -0.673903 0.359485 -0.722732 -0.520853 -0.236572 1.021309
0.834834 1.224159 0.955219 0.962763 -1.559794 -1.665749 -0.333284 0.992387 -0.207919 -1.464312 -0.656752 0.91845
0.482405 0.538386 0.583746 0.462617 -0.410439 -0.551505 -0.815286 0.584338 -0.586275 -0.129736 -0.712285 0.554033
0.730463 0.482913 0.627019 0.694614 -0.559727 -0.413927 -0.750357 0.519249 -0.809831 -0.674719 -0.442435 0.59674
0.361535 0.506522 0.510389 0.380648 -0.512325 -0.605968 -0.582183 0.512183 -0.368441 -0.16 -0.506379 0.46402
0.607924 0.759432 0.729553 0.576861 -0.480098 -0.214069 -0.930084 0.810981 -1.251163 -0.2547 -1.090315 0.735679
0.316818 0.361366 0.463719 0.315401 -0.219839 -0.613358 -0.482183 0.368038 -0.307507 -0.150036 -0.509565 0.457147
0.725581 0.842843 1.035065 0.685461 -0.877871 -0.762343 -1.286682 0.918725 -1.249303 -0.12436 -0.883697 0.976581
0.873641 1.345155 0.930473 0.934879 -1.833632 -0.462452 -1.677645 1.487246 -1.305242 -0.130874 -0.998769 0.837221
0.486969 0.456645 0.792907 0.566884 -0.680278 -1.232055 -0.197489 0.37004 -0.369615 -0.856364 -0.146407 0.808762
0.844329 0.608827 1.408411 0.885455 -0.654777 -1.713689 -0.89969 0.594663 -1.097738 -0.830094 -0.548713 1.403017
1.018681 1.652881 0.870934 0.973794 -1.548013 -1.039186 -0.56068 1.515518 -0.72226 -1.431796 -1.620385 0.890513
0.892401 0.896689 0.652982 0.810899 -0.525779 -0.610375 -0.637599 0.855228 -0.756908 -1.0657 -1.226138 0.714301
0.062897 0.304892 0.056295 0.06732 -0.54505 -0.035224 -0.092008 0.305704 -0.077268 -0.038209 -0.065547 0.056197
1.281167 1.784947 0.852712 1.209764 -1.665842 -0.542789 -0.875178 1.739115 -1.220685 -1.615753 -1.85822 0.910763
0.514892 0.624625 0.400988 0.473745 -0.566301 -0.026729 -0.656105 0.688101 -0.784748 -0.332532 -0.746425 0.41049
0.24585 0.401468 0.422408 0.274496 -0.767096 -0.377869 -0.398512 0.403357 -0.410476 -0.121834 -0.037729 0.365937
0.981193 0.899819 0.894692 0.864255 -0.41347 -0.76332 -0.521852 0.85456 -1.154385 -1.323596 -1.340909 1.023013
0.457417 0.356732 0.345888 0.477586 -0.683005 -0.224907 -0.525629 0.371291 -0.440873 -0.409374 -0.045018 0.319892
1.068858 0.731226 1.324286 1.098772 -0.992764 -1.557588 -1.66519 0.75053 -0.964793 -0.502439 -0.488992 1.198095
1.454491 1.538245 0.948214 1.371747 -0.902115 -1.46928 -0.73895 1.33065 -0.542348 -2.087288 -1.96678 1.063414
0.642578 0.591559 0.39015 0.600654 -0.412968 -0.16819 -0.331635 0.556255 -0.640111 -0.911597 -0.734846 0.418151
0.451317 0.987302 0.894966 0.507119 -1.213688 -1.140082 -0.875816 0.955942 -0.542771 -0.08262 -0.729556 0.787886
0.715024 0.539918 0.166305 0.621746 -0.17238 -0.06468 -0.488818 0.467242 -0.280173 -0.847952 -0.83478 0.178548
0.630509 0.687826 0.162381 0.667404 -0.931734 -0.227163 -0.751293 0.713462 -0.091969 -0.54662 -0.469554 0.156751
0.319213 0.715416 0.685613 0.334139 -0.862136 -1.054042 -0.175837 0.680583 -0.295677 -0.477515 -0.533862 0.664105
0.743377 0.761082 0.587724 0.704773 -0.484007 -0.678776 -0.926739 0.763842 -0.497313 -0.52141 -1.040916 0.588364
0.290545 0.411075 0.594401 0.33979 -0.587652 -0.875177 -0.049425 0.339414 -0.306929 -0.58091 -0.162836 0.587705
0.669973 0.389438 0.790291 0.707252 -0.709335 -0.739145 -0.645711 0.373043 -0.790028 -0.731513 -0.053146 0.738882
1.287914 0.813666 0.797942 1.254433 -0.705857 -0.6046 -0.77116 0.748329 -1.041853 -1.771187 -0.856139 0.848511
1.172117 0.116878 0.68775 1.275708 -0.132771 -1.33792 -1.273968 0.11609 -0.126271 -1.173857 -0.100197 0.776442
0.343933 1.103252 1.162315 0.345532 -1.088661 -1.135968 -0.11166 1.088738 -1.211174 -0.577805 -1.103329 1.184827
0.188141 0.35971 0.183015 0.198072 -0.484209 -0.103877 -0.17072 0.363045 -0.254615 -0.215494 -0.238545 0.175477
0.749441 0.49199 0.523631 0.828814 -0.849499 -0.831745 -0.89496 0.497295 -0.190666 -0.683294 -0.139787 0.49878
0.895571 0.724656 0.639366 0.912853 -1.169402 -0.614174 -1.157335 0.752613 -0.640257 -0.65109 -0.307867 0.615066
0.479179 0.741818 0.555663 0.422796 -0.49597 -0.510073 -0.08586 0.699272 -0.667228 -0.816115 -0.94512 0.621639
1.455123 0.439685 0.743735 1.412478 -0.236831 -0.406467 -1.839106 0.45159 -1.045527 -1.028496 -0.654445 0.708259
0.448114 0.445241 0.662959 0.40867 -0.053253 -0.068219 -0.109561 0.471576 -1.296507 -0.747223 -0.863564 0.701768
0.636779 0.419798 0.732679 0.659562 -0.775793 -0.626997 -0.635649 0.419244 -0.786615 -0.660691 -0.063249 0.680932
1.066658 0.840731 0.738931 0.945057 -0.529161 -0.637188 -0.968444 0.832228 -0.891164 -1.043271 -1.143797 0.789421
0.270283 0.415148 0.393645 0.332359 -0.740276 -0.52206 -0.410669 0.392182 -0.185083 -0.191973 -0.067054 0.313498
0.604453 0.85511 0.96984 0.588284 -0.441379 -1.322694 -1.039171 0.862378 -0.608599 -0.153566 -1.276109 0.961453
1.251038 0.29298 1.787066 1.257219 -0.077834 -1.961687 -1.240138 0.299368 -1.636724 -1.268119 -0.514514 1.811344
1.1747 1.491949 0.954742 1.17142 -1.626712 -0.367912 -1.987607 1.655638 -1.483513 -0.358514 -1.520875 0.896684
0.292341 0.37514 0.911541 0.299128 -0.50494 -0.754848 -0.294909 0.384175 -1.058751 -0.296561 -0.254375 0.902058
0.456103 0.427252 0.703548 0.450541 -0.765642 -0.485922 -0.628288 0.44275 -0.8496 -0.278356 -0.10436 0.631973
0.882794 0.652165 0.83051 0.922949 -0.310563 -1.581498 -0.589021 0.580301 -0.140921 -1.216723 -0.921903 0.891909
0.291362 0.223645 0.608033 0.329579 -0.058164 -0.644996 -0.010975 0.224299 -0.633283 -0.609966 -0.389781 0.670246
0.56839 0.883415 0.69402 0.640671 -1.080867 -0.609657 -1.064137 0.989475 -0.676592 -0.144924 -0.792023 0.59223
0.868318 0.921075 1.16302 0.937161 -0.979113 -1.711593 -0.798588 0.840094 -0.615054 -1.00689 -0.782056 1.163626
0.677935 0.688939 0.553 0.723757 -1.034529 -0.486547 -0.735391 0.706782 -0.575068 -0.666301 -0.361192 0.508614
0.944656 1.001106 0.31287 0.942955 -1.089455 -0.290934 -0.630814 0.928279 -0.341928 -1.256797 -0.83993 0.319992
0.267687 0.581191 0.23614 0.291981 -0.94802 -0.352321 -0.384425 0.582045 -0.107921 -0.175242 -0.215216 0.224103
0.528041 0.411741 0.81678 0.561479 -0.639443 -0.869901 -0.630833 0.382157 -0.701419 -0.458687 -0.154454 0.75454
0.555838 1.657724 1.417099 0.530383 -1.469647 -1.218958 -0.756163 1.735666 -1.671264 -0.330058 -1.923743 1.473123
0.483627 0.019216 0.561784 0.45629 -0.005563 -0.494713 -0.604689 0.022602 -0.593123 -0.335228 -0.036254 0.526052
0.80754 0.303797 0.129696 0.790672 -0.121631 -0.044353 -0.361711 0.267493 -0.207083 -1.236501 -0.449658 0.12174
0.423338 0.554854 0.309986 0.440207 -0.683931 -0.518653 -0.422953 0.555254 -0.089123 -0.440593 -0.426177 0.29779
0.839826 0.832368 0.550673 0.881386 -1.067073 -0.510457 -0.836602 0.840774 -0.565943 -0.88461 -0.606069 0.525726
0.830677 0.107126 1.354749 0.756276 -0.181262 -1.1893 -1.104973 0.103894 -1.454574 -0.48198 -0.029758 1.289125
0.097411 0.360251 0.154367 0.089602 -0.064188 -0.287832 -0.170503 0.357816 -0.020902 -0.016511 -0.653879 0.154367
0.918714 0.618698 0.626871 0.960588 -0.933235 -0.584138 -0.882384 0.629915 -0.64631 -0.996918 -0.315379 0.603576
0.312487 0.443669 0.535685 0.341442 -0.636147 -0.597343 -0.239439 0.436774 -0.467921 -0.414491 -0.244295 0.529579
0.253805 0.432491 0.146806 0.257457 -0.743923 -0.154268 -0.004278 0.420026 -0.125765 -0.506983 -0.108594 0.133227
0.978493 1.227005 1.364066 0.961754 -1.544538 -0.954086 -0.614443 1.217078 -1.766333 -1.325805 -0.899545 1.356353
1.175791 0.130106 0.812114 1.202686 -0.145898 -0.978147 -1.190899 0.138233 -0.658715 -1.187578 -0.122441 0.824748
0.419224 0.522539 0.160536 0.389134 -0.170701 -0.294211 -0.561032 0.520701 -0.025271 -0.247327 -0.872539 0.158945
1.449682 0.398962 0.509461 1.428387 -0.349754 -0.370622 -1.380696 0.379337 -0.640035 -1.497373 -0.428544 0.501196
0.103095 0.228944 0.032435 0.108969 -0.270702 -0.032864 -0.060522 0.220066 -0.031359 -0.151543 -0.178308 0.031789
0.500363 0.968407 0.716105 0.541536 -1.133546 -1.020118 -0.399345 0.896698 -0.363733 -0.642554 -0.731558 0.667747
1.038467 0.893526 2.02497 0.959019 -1.116095 -1.924028 -1.701609 0.907443 -1.977085 -0.295876 -0.684875 1.876143
1.03556 1.393495 1.47053 1.006484 -1.426292 -1.026719 -1.194852 1.472785 -1.909417 -0.847192 -1.439988 1.465606
0.331129 0.724561 0.191157 0.354945 -0.664526 -0.184187 -0.578673 0.76151 -0.19427 -0.1074 -0.821544 0.1873
1.125204 0.615548 1.467535 1.047176 -0.200923 -1.513372 -1.339182 0.661623 -1.408886 -0.833198 -1.076248 1.454723
1.150579 1.234513 1.102284 1.094418 -0.750206 -1.335226 -0.527601 1.096048 -1.017218 -1.717397 -1.580356 1.25016
0.094817 0.321598 0.347068 0.103329 -0.441357 -0.441393 -0.068491 0.300081 -0.23427 -0.129654 -0.180321 0.328596
0.395006 1.159296 0.790198 0.414059 -1.355847 -1.01407 -0.142733 1.067195 -0.497785 -0.666332 -0.870643 0.721657
0.937293 0.553986 0.356026 0.956753 -1.002063 -0.30276 -1.260935 0.597806 -0.395133 -0.63311 -0.149728 0.341866
0.375417 0.987802 0.247771 0.385448 -1.062755 -0.040957 -0.398189 1.010719 -0.484815 -0.362675 -0.935767 0.278001
1.278787 0.616537 0.425363 1.232342 -0.359366 -0.111579 -0.806422 0.548061 -0.750846 -1.704707 -0.805232 0.437063
0.734351 0.815627 0.990805 0.674669 -0.152338 -1.231216 -0.677972 0.818414 -0.81996 -0.731048 -1.481704 1.060371
0.626259 0.289293 0.626222 0.621425 -0.403995 -0.673863 -1.096557 0.316783 -0.515401 -0.151127 -0.202081 0.563042
0.217788 0.297005 0.540216 0.20948 -0.161521 -0.578757 -0.183782 0.298298 -0.512384 -0.243486 -0.433782 0.550925
1.784755 1.636435 1.006329 1.7859 -1.593346 -1.123452 -1.494146 1.547478 -0.916337 -2.076509 -1.590567 1.03346
1.58243 2.040927 1.63683 1.581219 -1.852523 -1.942793 -1.437823 1.932934 -1.374324 -1.725827 -2.121337 1.680287
0.268968 1.390995 1.091251 0.289439 -1.737352 -0.645832 -0.520755 1.461867 -1.51647 -0.037651 -1.115509 1.071052
1.462171 1.526147 1.969281 1.436059 -1.414959 -2.007631 -1.611102 1.554968 -1.920567 -1.287128 -1.666156 1.958917
1.843346 0.78118 0.980519 1.859327 -0.953054 -0.902957 -1.888271 0.807287 -1.030979 -1.814403 -0.635413 0.953416
0.349112 0.586256 0.459977 0.331275 -0.610979 -0.381107 -0.118897 0.558645 -0.561348 -0.56149 -0.533922 0.482479
0.617829 0.573913 0.853802 0.595332 -0.280015 -0.870335 -0.350639 0.568277 -0.930756 -0.862522 -0.862175 0.94729
0.716752 0.579784 0.495828 0.660035 -0.578777 -0.161451 -0.765731 0.630169 -0.811185 -0.611056 -0.631176 0.476808
0.314786 0.808328 1.014813 0.313713 -0.640629 -0.973747 -0.152736 0.823961 -1.086738 -0.475763 -0.991659 1.045673
0.822823 0.666108 0.757141 0.799308 -0.619584 -0.707149 -1.01439 0.713144 -0.771557 -0.607741 -0.759669 0.721564
0.428172 0.35225 0.705051 0.454633 -0.465219 -0.751937 -0.235484 0.315896 -0.669375 -0.647321 -0.202927 0.716261
0.714121 1.056626 1.13832 0.6735 -1.050663 -0.910793 -1.021182 1.157616 -1.345284 -0.366439 -1.163579 1.117757
0.601991 0.446831 0.658183 0.561048 -0.031965 -0.844834 -0.799565 0.45044 -0.471521 -0.363473 -0.865306 0.658172
0.236747 0.514642 0.744284 0.235601 -0.619568 -0.764559 -0.357405 0.494125 -0.676772 -0.114943 -0.3892 0.697047
1.104564 1.363443 0.792459 1.032422 -1.007225 -0.903942 -1.014915 1.33165 -0.729894 -1.122071 -1.687868 0.841377
0.138695 0.348653 0.488263 0.130449 -0.358102 -0.344692 -0.25105 0.373979 -0.629849 -0.018094 -0.364529 0.486278
0.351981 0.35955 0.697302 0.326654 -0.541152 -0.572134 -0.551152 0.367997 -0.753744 -0.127484 -0.186395 0.628576
1.444942 1.357411 1.243119 1.54924 -1.912125 -1.265805 -1.120224 1.303755 -1.180549 -1.873957 -0.749042 1.203235
0.729433 1.093912 0.270525 0.759389 -1.10832 -0.340465 -0.965393 1.139712 -0.176694 -0.523428 -1.125304 0.246635
1.01623 0.90273 1.816026 0.960717 -0.254329 -1.916381 -0.967974 0.961616 -1.802065 -1.008973 -1.610018 1.902421
0.225185 1.497726 0.690078 0.238751 -1.333187 -1.165615 -0.377031 1.428525 -0.153272 -0.086905 -1.593064 0.62881
1.363463 0.609174 0.988379 1.425507 -0.435566 -1.617296 -1.279765 0.548486 -0.431276 -1.509205 -0.722095 1.060192
0.369968 0.281104 0.142533 0.355738 -0.193859 -0.034219 -0.457431 0.289202 -0.246557 -0.268275 -0.376446 0.138244
1.357102 1.600447 1.068606 1.25596 -1.633736 -0.328227 -1.17139 1.656869 -1.847445 -1.441672 -1.623581 1.107066
1.25119 0.266268 0.835122 1.307121 -0.485849 -1.38313 -0.988721 0.254165 -0.356822 -1.56959 -0.034584 0.90483
0.404779 0.405907 0.494866 0.424562 -0.350843 -0.811987 -0.50615 0.388187 -0.173528 -0.323191 -0.443252 0.490649
0.711179 1.332112 0.868954 0.686745 -1.06175 -1.345488 -0.435031 1.249897 -0.402552 -0.962893 -1.520259 0.879086
