       3.35380000       0.00000000       0.00000000      -0.07946898       6.22929312       0.00000000       0.02404341       0.15952898       3.76974942   
       3.94320000       0.00000000       0.00000000      -1.30641037       6.00841355       0.00000000       0.45469643      -2.29266894       5.74611618   
       5.24550000       0.00000000       0.00000000      -1.25817335       5.06115707       0.00000000      -2.15728592       2.73002468       4.91821999   
       4.30950000       0.00000000       0.00000000       0.93496179       4.45014424       0.00000000      -0.30521790      -0.89050004       5.05825125   
       4.79820000       0.00000000       0.00000000      -1.32931509       3.82996713       0.00000000      -1.50004200       0.86949799       3.79410852   
       5.11750000       0.00000000       0.00000000       0.43593080       3.75095332       0.00000000       1.06541476      -0.41272396       4.88547332   
       5.73470000       0.00000000       0.00000000       1.27777531       5.14016165       0.00000000      -1.02579207       0.37348822       3.93290169   
       8.73210000       0.00000000       0.00000000       0.17035983       2.83869265       0.00000000      -1.91377049       0.86725405       3.75091101   
       2.58010000       0.00000000       0.00000000       0.51918269       4.40863450       0.00000000      -0.60489758      -0.89071754       7.40877188   
       4.13240000       0.00000000       0.00000000      -0.00725539       4.14459365       0.00000000      -0.00591627      -0.01105739       5.69708620   
       4.01580000       0.00000000       0.00000000       2.25808448       5.70507397       0.00000000      -0.49739984      -3.50840140       4.22689715   
       4.64380000       0.00000000       0.00000000      -0.35915780       5.27428554       0.00000000       0.03704918       0.67164436       4.77959769   
       5.73880000       0.00000000       0.00000000      -2.06332921       4.65632060       0.00000000       0.56987331      -0.47452105       4.89706980   
       3.04670000       0.00000000       0.00000000      -2.07521587       6.78535323       0.00000000       0.04641860       2.59879026       6.34084954   
       3.91460000       0.00000000       0.00000000      -0.43211761       5.04633267       0.00000000       0.43388962      -0.34698820       5.28889998   
       4.70630000       0.00000000       0.00000000      -0.18832478       5.60523722       0.00000000       0.69284769      -0.44003432       4.80835110   
       4.06490000       0.00000000       0.00000000      -0.04765336       3.41056710       0.00000000       0.38335279      -0.12839663       7.02657912   
       5.27330000       0.00000000       0.00000000      -0.92835057       4.77376994       0.00000000       1.92110952      -0.40305789       4.19396458   
       6.16290000       0.00000000       0.00000000      -0.04565897       2.68371162       0.00000000      -0.37090651       1.02127849       4.77278374   
       4.19830000       0.00000000       0.00000000       0.65500339       7.92798812       0.00000000       1.21390916      -1.44017273       3.75542924   
       4.38530000       0.00000000       0.00000000       2.39308542       5.69481712       0.00000000      -0.54509555      -3.47369861       4.21998095   
       4.09810000       0.00000000       0.00000000      -2.24513732       5.97682822       0.00000000       1.17218551      -3.01365867       5.42861053   
       4.72330000       0.00000000       0.00000000       0.56021575       2.37913261       0.00000000      -3.11653337       1.88467963       5.82760336   
       5.34920000       0.00000000       0.00000000      -0.12321844       4.53842762       0.00000000       2.30291322       0.63804344       4.32572154   
       5.26270000       0.00000000       0.00000000       0.15861516       6.15705726       0.00000000       0.28184048       0.84640830       3.91361149   
       3.76380000       0.00000000       0.00000000      -2.03136124       4.19638897       0.00000000      -0.46263436       0.82964720       5.73496178   
       5.52300000       0.00000000       0.00000000      -1.62557399       4.32019004       0.00000000       2.60960665       0.79452617       5.54804029   
       3.02880000       0.00000000       0.00000000       0.02174193       5.73005875       0.00000000       0.43023203      -1.68023283       8.02377971   
       4.44150000       0.00000000       0.00000000       0.40134653       4.55736173       0.00000000      -0.16735369       1.65082515       5.13097494   
       5.36880000       0.00000000       0.00000000       1.52488637       5.18887565       0.00000000       0.44368270       0.62614903       4.65101454   
       5.60650000       0.00000000       0.00000000      -0.15256826       4.49100923       0.00000000       0.18681951      -0.33986102       5.17187953   
       4.86510000       0.00000000       0.00000000      -1.09781229       3.57985189       0.00000000       0.06727258      -3.11834678       7.10064561   
       3.78600000       0.00000000       0.00000000      -1.48577848       6.21815636       0.00000000       0.77855189      -2.43986930       5.34710802   
       7.14440000       0.00000000       0.00000000      -0.10130048       3.08043481       0.00000000      -2.42550992       0.72859135       5.15208590   
       5.22350000       0.00000000       0.00000000       2.42440335       5.35571971       0.00000000       1.01114751      -0.31099067       4.35608365   
       5.33010000       0.00000000       0.00000000      -2.85735491       5.12314866       0.00000000      -0.34195759       1.70531690       4.82499477   
       5.14130000       0.00000000       0.00000000      -2.15947075       4.50163725       0.00000000       1.95822797      -0.02900481       4.29001337   
       6.23750000       0.00000000       0.00000000       1.94301007       5.36648177       0.00000000       0.10272869      -1.90020648       3.29148388   
       7.78760000       0.00000000       0.00000000       2.08980164       3.47548533       0.00000000      -0.62976620       3.35413538       5.37440409   
       6.76630000       0.00000000       0.00000000      -0.21548649       3.27411652       0.00000000       3.37091676      -1.24141224       6.30657818   
       3.24880000       0.00000000       0.00000000      -0.28332233       5.99360731       0.00000000       1.30731637       0.32293281       4.38331479   
       5.10670000       0.00000000       0.00000000       2.45506689       3.52671447       0.00000000       0.77871131      -0.04069482       4.58039914   
       5.31620000       0.00000000       0.00000000       1.92059388       5.00558979       0.00000000      -0.15029801      -0.85305306       4.63292189   
       4.42120000       0.00000000       0.00000000       0.16432470       5.41710823       0.00000000       1.58172126      -0.69960316       4.22965217   
       5.10300000       0.00000000       0.00000000       3.73798784       5.02145864       0.00000000       0.70406453       1.86697092       5.24327519   
       2.71460000       0.00000000       0.00000000      -0.51354618       5.45337295       0.00000000       0.22016747      -2.24251132       9.62115957   
       2.90590000       0.00000000       0.00000000      -0.10066431       7.94836258       0.00000000       0.01628712      -2.37864246       5.80277974   
       5.53140000       0.00000000       0.00000000       1.85817084       5.12631821       0.00000000      -1.46525460      -1.94989625       5.11037888   
       5.25020000       0.00000000       0.00000000       2.03317346       4.48716362       0.00000000      -0.45738473      -0.25072930       5.81153956   
       4.57980000       0.00000000       0.00000000      -0.37757881       4.67317117       0.00000000       1.88601491       0.15353296       5.59719268   
       4.70860000       0.00000000       0.00000000      -1.12526537       5.38723399       0.00000000       1.78674603      -2.60878210       4.66857629   
       4.00720000       0.00000000       0.00000000      -3.68725037       5.58585466       0.00000000      -0.24574549      -1.70084074       3.34441354   
       6.21000000       0.00000000       0.00000000      -0.45475773       4.32978387       0.00000000       0.39363688       2.00090312       4.78736772   
       5.98320000       0.00000000       0.00000000      -2.11021741       4.46837701       0.00000000       3.01332663       1.43497540       3.39778929   
       4.41510000       0.00000000       0.00000000       1.01708906       5.12250291       0.00000000       0.49275675       0.97311280       5.57734088   
       4.89060000       0.00000000       0.00000000      -0.62614176       5.00226471       0.00000000      -2.78388041       0.12192312       4.78182338   
       3.77540000       0.00000000       0.00000000      -1.67896806       5.09572736       0.00000000      -0.73982185      -2.22249360       5.81526511   
       3.47490000       0.00000000       0.00000000      -1.77144814       4.44028241       0.00000000      -0.84932502       0.65887593       5.49790265   
       4.86340000       0.00000000       0.00000000      -0.78906742       4.91455785       0.00000000       0.80389142       0.58882720       4.55170093   
       3.17930000       0.00000000       0.00000000       0.10725697       3.59440008       0.00000000      -3.38265729      -0.82800836       6.84368331   
       4.73660000       0.00000000       0.00000000      -1.36232362       5.39299250       0.00000000      -0.54858874      -1.71373604       4.23150120   
       4.49180000       0.00000000       0.00000000       1.58901937       3.72079619       0.00000000      -0.00761830       0.09046070       5.14049847   
       5.18890000       0.00000000       0.00000000       1.08997784       4.72121271       0.00000000       2.55973919       1.49407136       4.12748253   
       4.75470000       0.00000000       0.00000000      -1.27521373       5.48562918       0.00000000       0.18127843       0.75681871       5.38990735   
       4.76380000       0.00000000       0.00000000      -1.59467569       4.57324440       0.00000000       0.07983895      -3.31846500       3.79222888   
       6.05610000       0.00000000       0.00000000       0.44553275       4.36210633       0.00000000       1.24174672       1.27331015       5.20216793   
       4.23720000       0.00000000       0.00000000       0.67606496       4.76548323       0.00000000       3.32704809      -0.41110210       5.03124674   
       5.13660000       0.00000000       0.00000000       1.92487086       4.75939086       0.00000000       1.25227022      -1.85253433       4.63722968   
       3.89410000       0.00000000       0.00000000       0.60535358       3.83957238       0.00000000       0.06089627      -0.23883461       5.75622549   
       5.01130000       0.00000000       0.00000000      -2.29105357       4.05607743       0.00000000       0.97568965       1.50496807       5.47332120   
       4.03890000       0.00000000       0.00000000       1.41772694       5.75525287       0.00000000      -0.19561306       2.48123883       4.77371327   
       4.24430000       0.00000000       0.00000000      -0.71707100       4.09874739       0.00000000      -0.58660876       1.46812559       4.35830791   
       6.52440000       0.00000000       0.00000000      -0.21170175       3.31304307       0.00000000       3.05046345      -1.19089021       6.19573366   
       5.19450000       0.00000000       0.00000000       2.60857956       4.16787935       0.00000000       1.02406818      -1.62933823       4.95383201   
       5.12140000       0.00000000       0.00000000      -0.35635187       5.79294990       0.00000000      -0.95457462      -0.39712617       4.54509225   
       4.03230000       0.00000000       0.00000000       0.03842980       4.95125086       0.00000000      -0.02357519      -1.33874071       4.75009648   
       4.78010000       0.00000000       0.00000000      -0.70523588       5.28071625       0.00000000      -0.44165557       1.27154332       5.21942276   
       4.90600000       0.00000000       0.00000000      -1.34337726       4.39601961       0.00000000      -1.32551440       0.22785825       4.35913108   
       5.74620000       0.00000000       0.00000000      -2.80111358       5.11903202       0.00000000      -2.41390875      -1.19960822       4.40757381   
       4.27100000       0.00000000       0.00000000       1.93354483       5.08018099       0.00000000      -2.71133506      -2.71957504       3.94305599   
       5.52170000       0.00000000       0.00000000      -0.37643460       5.59134268       0.00000000      -2.48586301       0.07139539       4.26316174   
       5.20240000       0.00000000       0.00000000       0.07341950       4.46049580       0.00000000      -1.77320958      -0.38864549       5.54796550   
       4.96430000       0.00000000       0.00000000      -0.42927187       4.71098248       0.00000000       1.70776502      -1.75853260       4.55714679   
       4.48100000       0.00000000       0.00000000       0.08932340       5.20373343       0.00000000       1.37559741      -2.27542998       4.34734013   
       4.68590000       0.00000000       0.00000000      -1.13379509       6.40268803       0.00000000      -0.93414587      -0.27660940       3.56352511   
       5.18630000       0.00000000       0.00000000      -0.00287083       3.87939894       0.00000000       0.01416135       1.10830443       4.15220743   
       3.07240000       0.00000000       0.00000000       0.58098812       7.79457730       0.00000000       1.11255520       1.05704978       5.40464260   
       5.15270000       0.00000000       0.00000000      -0.26175385       3.67549125       0.00000000       1.36600172      -2.97268936       4.44855496   
       3.88290000       0.00000000       0.00000000       0.15106726       6.09332764       0.00000000       0.72173008       0.56907990       5.80549624   
       4.88750000       0.00000000       0.00000000      -2.30593248       4.78917034       0.00000000      -0.16806289      -1.79195952       5.76822695   
       5.38540000       0.00000000       0.00000000       0.00750188       5.00379438       0.00000000       1.35236230       1.56028429       4.00699244   
       4.32980000       0.00000000       0.00000000      -1.65978681       4.55587194       0.00000000       0.26821837       0.63888882       4.52525844   
       3.86730000       0.00000000       0.00000000      -1.28630283       4.66366100       0.00000000       0.65529125      -2.50930060       5.49194011   
       7.27880000       0.00000000       0.00000000      -0.71715657       4.00073077       0.00000000      -1.40357411       0.04169455       2.57798151   
       5.72860000       0.00000000       0.00000000      -1.47787189       4.68943674       0.00000000      -0.35928053       2.94341033       4.71049067   
       5.32050000       0.00000000       0.00000000      -1.39040062       3.75057144       0.00000000      -1.26948801      -1.54344451       4.93512052   
       5.86350000       0.00000000       0.00000000       1.37932002       5.67179096       0.00000000      -1.36124288       2.73193943       3.92951845   
       5.43700000       0.00000000       0.00000000      -1.43163029       4.04004272       0.00000000      -2.88943177       0.78469345       4.04033039   
       4.01310000       0.00000000       0.00000000      -0.02716323       2.93087413       0.00000000       0.23077313      -2.61684953       8.40555082   
       5.13350000       0.00000000       0.00000000      -1.58656511       2.80464408       0.00000000      -0.04420041       1.03062536       4.89753843 
