   -90.311342 
  -116.883007 
  -117.374953 
  -112.156279 
   -88.183526 
  -111.398939 
  -113.458471 
   -99.959672 
   -97.590199 
  -115.330610 
  -110.448602 
  -115.417771 
  -117.364915 
  -117.248065 
  -113.159362 
  -117.050277 
  -112.335244 
  -113.677406 
   -95.137687 
  -115.224349 
  -113.171626 
  -115.409389 
   -90.103190 
  -114.622497 
  -115.842518 
   -99.482272 
  -116.215212 
  -117.336557 
  -113.932401 
  -116.948509 
  -116.710978 
   -87.635736 
  -114.288795 
  -113.525244 
  -115.795368 
  -117.352051 
  -112.860371 
  -113.948334 
  -115.596470 
  -117.343032 
   -97.494641 
   -97.456612 
  -117.613321 
  -109.989784 
  -116.587715 
  -117.279177 
  -116.979939 
  -117.838610 
  -117.675609 
  -115.567566 
  -114.331084 
   -99.323355 
  -116.329128 
  -109.478793 
  -116.577670 
  -115.106294 
  -113.894475 
   -97.200717 
  -112.572126 
  -104.456829 
  -112.685307 
   -98.219223 
  -113.850263 
  -117.466873 
   -95.602483 
  -117.098914 
  -113.227655 
  -114.683560 
  -111.205078 
  -112.815132 
  -113.593050 
  -102.122413 
  -116.802351 
  -113.045359 
  -116.202558 
  -114.412749 
  -116.391241 
  -108.256806 
  -116.981754 
  -106.757774 
  -116.944944 
  -116.496252 
  -112.760873 
  -110.400359 
  -113.142968 
   -97.746631 
  -116.420098 
  -106.311864 
  -116.914453 
  -117.531318 
  -112.807189 
   -99.572743 
  -110.941214 
   -91.422438 
  -115.684969 
  -109.806634 
  -117.363625 
  -110.134548 
  -113.977551 
   -89.456370 
