 7.710900  0.000000  0.000000  0.000000  8.904000  0.000000  0.000000  0.000000 26.296000 
 7.667900  0.000000  0.000000 -11.501850 19.921789  0.000000  0.000000  0.000000 21.260799 
