 3.109570  5.597410  2.771860  1.850690  6.321660  0.736290  4.390820  7.802660  2.764760  4.383800  4.845560  4.760630  0.551250  8.550070  0.733660  0.548550  5.569360  2.737680  3.093540  7.066750  4.838200  3.123380  8.568410  0.743650  0.547240  7.054550  4.737490  4.408090  6.334930  0.735760  1.844220  7.792510  2.737680  1.806050  4.829260  4.733810  4.405930  1.883460  0.735760  3.121450  4.118100  0.742600  3.108800  1.144250  2.772650  0.543700  1.118880  2.738470  3.090450  2.616890  4.833470  4.391900  3.354140  2.761080  4.376400  0.388130  4.763780  1.849380  3.339800  2.744250  1.794020  0.371830  4.733810  0.532510  2.602370  4.736960  0.555570  4.098240  0.733130  1.845300  1.871980  0.735760  6.991240  6.321660  0.736290  5.691800  8.550070  0.733660  5.689100  5.569360  2.737680  5.687870  7.054550  4.737490  6.984760  7.792510  2.737680  6.946670  4.829260  4.733810  5.684240  1.118880  2.738470  6.990010  3.339800  2.744250  6.934570  0.371830  4.733810  5.673140  2.602370  4.736960  5.696120  4.098240  0.733130  6.985840  1.871980  0.735760  1.910610  4.783590  7.460170  4.585980  4.781360  7.546690  0.660590  7.010920  7.529860  1.893870  6.258180  7.479630  1.895800  0.341380  7.455440  3.381150  7.047610  7.523020  4.575340  6.265210  7.550370  4.579890  0.330690  7.547220  0.665140  8.491830  7.531170  0.691590  2.560170  7.514870  1.937210  1.814100  7.447030  3.386780  8.449810  7.529070  3.404900  2.593910  7.523020  4.598780  1.813120  7.547740  0.677560  4.036090  7.522230  3.398420  3.993530  7.529600  7.051160  4.783590  7.460170  5.801220  7.010920  7.529860  7.034420  6.258180  7.479630  7.036430  0.341380  7.455440  5.805690  8.491830  7.531170  5.832140  2.560170  7.514870  7.077760  1.814100  7.447030 
 1.282800  2.212310  0.039760 -8.144420 19.347740  4.085240  6.215390  0.757420  1.897690  3.841620  2.212120  0.038910 -10.750040 19.272430  3.795100  1.103990  0.574690  1.689960 -1.272530  2.213110  0.036990  2.237010  0.064850  6.143520  3.735900  0.970690  2.226780  0.001760  4.428220  0.027430  1.882580  1.743410  3.902960 -0.093660  2.609750  2.402980  2.561270  4.428810  0.039120  5.490550  0.553690  4.235460  2.989180  3.294010  2.286810 -2.546050  4.428610  0.028060 -0.011330  1.730800  5.377530  5.376480  2.921220  1.833860 -1.271150  6.635350  0.028910  1.240240  4.054270  4.357950 -2.588110  5.438170  1.959160  1.283760  6.639930  0.036780  4.011410  4.654690  4.378530  0.143110  5.240130  2.399690 -3.828310  6.640530  0.044220 -1.597310  3.576900  4.136180  2.475790  5.723850  2.142770 -2.551110  8.852840  0.039760  0.284490  6.478610  4.392990 -3.646020  7.961560  2.274960  0.007590  8.852840  0.038910  2.681140  7.060980  4.030470 -1.067040  7.859500  2.231120 -5.106550  8.853840  0.036990 -2.096530  6.922060  4.126020  1.448760  8.301170  1.929250 -3.832150 11.068750  0.027430 -5.048350  9.394130  5.193820 -5.223310  9.948230  2.906820 -1.272640 11.069340  0.039120 -2.544470  9.557530  4.570610 -2.395560 10.660440  2.501560 -6.379960 11.069140  0.028060  0.526200  8.691680  4.205300 -0.299950 10.555280  2.270450 -5.105060 13.275880  0.028910 -5.682980 12.034100  4.572380 -6.127530 12.270750  2.124080 -2.550150 13.280460  0.036780 -3.199250 12.132430  4.255530 -4.033210 13.526430  2.371890 -7.662230 13.281060  0.044220 -0.608960 11.823160  4.577450 -1.622170 12.987430  2.335600 -6.385020 15.493370  0.039760 -6.075000 16.122790  6.224120 -5.810030 16.161570  2.301890 -3.826320 15.493370  0.038910 -6.892850 13.892490  6.422450 -4.842590 14.905860  4.223450 -8.940470 15.494370  0.036990 -7.352800 13.806640  3.893940 -2.241940 14.801190  4.087140 -7.666170 17.709470  0.027430 -5.112170 17.253040  4.365730 -8.351570 15.335220  2.393300 -5.106670 17.710070  0.039120 -3.938600 16.631870  6.654630 -3.551740 15.925770  2.191850 -10.213990 17.709870  0.028060 -8.542710 15.633880  6.129220 -2.371150 17.300640  4.789790 -8.939080 19.916610  0.028910 -7.364190 17.125720  3.924720 -9.548590 17.661200  2.565380 -6.384180 19.921190  0.036780 -4.191650 18.890540  5.880700 -7.126000 18.479830  2.164090 -11.496140 19.921590  0.044220 -7.801300 17.994070  6.020740 -4.499310 18.262000  2.262530 -3.650700 13.958980  6.649480 -4.877950 14.312180  6.939930 -1.296120 13.068070  6.502380 -2.249570 13.906730  6.584870  0.084850 10.835580  6.731200 -0.166780 12.147960  6.408330  0.441670  8.388820  6.044280  0.663110  9.657400  6.417660 -1.409550  6.299840  5.961230 -0.322650  7.146510  6.197500 -0.571820  3.610700  5.835240 -1.068860  4.868430  6.011910 
