-0.0378999855 -0.0210384300 0.2158133839 0.0020079183 1.6184885820 2.2853142582 1.4325085113 0.8275446730 4.3577935759
