 0.082834 -0.027745  0.022772 -0.026279  0.002595 -0.101802  0.018992  0.011638  0.060261  0.132846 -0.064990  0.321182  0.015157 -0.036214 -0.114512 -0.022506 -0.017350  0.054073  0.060631  0.003410 -0.228193  0.029234 -0.046460 -0.071775 -0.050862  0.016677  0.018918 -0.005386 -0.035181 -0.036155  0.002824  0.050343  0.155163  0.087351  0.008718  0.199772 -0.009085 -0.036913 -0.051056  0.035953 -0.062179 -0.071194  0.060912 -0.024733  0.011232 -0.003939 -0.014864  0.044195  0.019659 -0.059965 -0.159412  0.019023  0.012160  0.059339  0.010503 -0.024322 -0.055389 -0.024369  0.050224  0.133079  0.109618  0.046570  0.232955  0.027595 -0.006620  0.063184  0.008745 -0.046890 -0.105390 -0.010616  0.003202 -0.085179 -0.051146 -0.018307 -0.138480 -0.006521 -0.018735 -0.049716 -0.049982  0.006674  0.039067 -0.035113  0.069970  0.008947 -0.074623  0.021528  0.040680 -0.041258 -0.057675  0.563421 -0.048425  0.021237  0.049113 -0.111138  0.045968 -0.022988  0.090713 -0.006050  0.111106  0.027695  0.122341  0.455475 -0.012679 -0.038221 -0.064001 -0.045639 -0.031401 -0.137661  1.695423  0.613531  0.478545 -1.406639  1.837206 -0.467124 -0.750784 -0.182535 -0.345274  2.484569  0.033618  0.308614  2.695886 -0.488905  0.352785 -3.776325 -1.800361 -0.150031  0.427652 -1.483381  0.064547 -0.057726  0.184028 -0.028295 -1.028405  0.392707 -0.602612 -0.409106 -0.557492 -0.700483  1.663224  0.436354  0.723795 -3.707121  2.075240 -0.222856 -4.242449 -2.494450 -0.430924  0.795931  0.574683 -0.089443 -1.890979 -0.001942 -0.310653 -1.142344  2.241842 -0.187415  2.373060  1.253458 -0.409888  0.528707  0.836351 -0.170377  1.699603 -0.863443  0.508967  2.381287 -0.596261  0.436919  0.545529 -0.391112 -0.148973  0.700588 -2.571638 -0.590133  0.225564  1.042278  0.741468 
 0.152379  0.613277 -0.058308 -0.897083  0.856596  0.105503  0.334027 -1.334169  1.272313 -0.305254 -0.016641  0.040809 -0.190677  1.866219  0.452211  1.577329  0.555882  3.786668  0.976581 -0.143425 -1.733374 -0.625626 -0.102191 -0.725882 -0.217117 -0.169766 -0.033862  0.077544 -0.079065  0.340263  0.548624 -0.665756 -0.393646  1.528669  0.590361  0.378691 -0.088882 -0.092194  0.146344  0.455685 -0.175066 -0.175418 -0.437806  0.271951  0.296939 -0.088569 -0.470948 -1.743660 -0.495757  0.268458  0.143309 -1.527926  1.233384  1.980152  0.029917  0.016319  0.394716 -0.066215  0.153766 -0.304629  0.087430  1.010728  1.948993 -0.134672 -0.103083  0.357260 -0.944634  0.487211 -0.978761 -0.556438 -0.208427 -0.572614 -0.030393  0.031472  0.432354  0.310598 -0.069330 -0.505895  0.221800 -0.069324 -0.248828 -0.001616  0.137280  0.546532  0.455726 -1.291152 -0.230206  0.424279  0.198545 -0.276129 -0.218396  0.095543  0.162350  0.090377  0.084460  0.529220  0.189629  0.364027 -0.472699  0.678549  0.346571 -0.457276 -1.227344 -0.321052  0.384644 -1.280193 -2.023672  0.137649 -0.009053 -0.002567  0.735383  0.233382  0.303002  0.256989  1.041804  2.081307  0.384627 -0.170678  0.044708  0.321619 -0.321648 -0.247037 -0.354585 -2.675377 -0.115219 -0.562595  0.011935 -0.246157  0.284450 -0.151777  1.710730 -2.048125  2.762064 -0.429745  0.015279  0.000372  0.078057  0.370645  0.154256 -0.098233 -0.467515 -0.212572  0.297391  0.210511 -0.112933  0.056877  0.366115 -0.279290 -0.258712 -0.273469 -0.040857 -0.236936 -0.324059  0.012884  0.061984  0.668089 -0.681765 -1.016948 -1.654924  0.533397  0.043479  0.042771 -0.120976 -0.158869  0.196715 -1.020499 -0.393880 -0.060540 -1.284750 -0.350858 -0.334624 -0.183288 -0.299278 -1.021460  1.479499 -0.492139  0.217691 -0.087148 -0.728417  0.088284 -0.132695  0.010846  0.261590  0.806519  0.900883 -0.500462 -0.282761 -0.076658  0.065013 -0.177393 -0.353062 -0.133133  1.034123  0.819740  0.242660  0.271950  0.645691 -0.732696 -0.213595 -0.163600 -0.069917  1.189144 -0.301030 -0.355754  1.264173  0.039560  1.255962  0.005125 -0.037874  0.480094 -0.846259  0.112613 -0.386861  0.037387 -0.804543  1.171021  0.702172 -0.311162 -0.296819 -0.919822 -1.998962  0.550415  0.680693  0.082859 -1.359929 -0.524721 -0.463025 -0.381010  0.061446  0.460643  0.027697  0.768915  0.577939 -1.081449 -1.666534 -1.170111 -2.583686  0.078198 -0.141880  0.658917  0.006952  0.283289 -0.414111 -0.343341  1.106108  0.707474  0.490315  0.051820 -1.398858  4.174293 -2.809781  0.434863 -2.846698  1.269675 -0.093278  1.113734 -1.170431 -0.893177 -2.134888  0.979196  1.176145 -2.866124 -4.408338  1.408871 -1.002744  2.428141  1.073363  2.314712 -1.319112 -0.227067  1.413341  3.614960 -0.107487 -1.032920  3.096624  0.452622  0.882969 -2.389687 -0.867614 
