       3.35380000       0.00000000       0.00000000      -0.07946898       6.22929312       0.00000000       0.02404341       0.15952898       3.76974942   
       3.94320000       0.00000000       0.00000000      -1.30641037       6.00841355       0.00000000       0.45469643      -2.29266894       5.74611618   
