       0.14484300       1.44770700       3.03983500              1.85554600       6.14001300       3.26371600              3.11433900       5.02752500       3.23655200              1.78860000       4.76133200       2.51173200              0.86479900       1.99063900       0.72217300              2.07383000       4.10034900       0.55193100              2.08023300       1.32564300       2.02129300              0.73933500       0.24431200       2.24954200              0.18585500       4.33251900       1.50282900              0.17196500       3.01305300       2.43031400              2.10491400       2.52679800       3.45003100              0.18758800       6.07117300       0.37824800              1.95750800       6.12359300       1.25224000              1.46224300       3.33498200       1.67172900              2.94068300       2.12144300       2.44945100              2.86429100       4.62346200       0.75930200              0.94818700       3.94094400       2.33011000              1.48531800       0.66471800       1.46856900              2.47792800       5.55416700       2.63882600              1.45122300       2.70072300       0.43513600              0.75104400       0.44888800       3.42143500          
       1.42403800       3.35104400       5.06829600             -0.02697300       2.73195800       3.63345200              1.54732800       4.31517700       3.09383300             -0.45398500       4.24130600       3.62228700              0.52344200       1.15525300       5.62186300              1.87141000       0.18091500       4.84856900              0.12241000       0.67861800       3.90560700              1.95496600       1.46725200       3.42756500              2.95793600       0.75500800       2.40332000              0.16156800       2.77067100       1.45560600              1.49507400       1.26409500       0.28436100              2.71355600       4.32596900       1.96222800              0.97882900       0.33803300       1.78875900              2.61080100       2.53392100       0.29549300              3.81331000       0.11508500       0.54213800              1.07208900       4.72584200       0.60202200              0.30642100       3.62997300       3.87499600              0.59435800       0.77848300       1.01343700              2.69223200       1.63618400       2.74831400              2.29385400       4.86728900       2.70032100              0.89356100       1.00388100       4.39863900              2.62842600      -0.38320300       5.39091300             -0.16893400       3.56444000       0.97927500              2.07136400       3.00254400       5.74542200          
