     -0.05439800      0.24378700      0.02063000      0.28527200     -0.12513800     -0.25176500     -0.28888800     -0.00618900      0.16100700     -0.46466100      0.08383700     -0.17050500      0.07224600     -0.39832200     -0.01284800     -0.11602100     -0.79190800      0.00023400      0.36663400      0.17577500     -0.58945900      0.55632000      0.45096100      0.42107600     -0.00741000     -0.36140500      0.11907300     -0.15219600      0.04598200      0.49314600     -0.18696600     -0.12957600      0.55094900     -0.17724900     -0.24019500     -0.09420900      0.48150100     -0.17531000     -0.18896000     -0.12731400      0.03370500      0.10072000     -0.48163400      0.49581800      0.46188600      0.24778800      0.23508200     -1.06019800      0.53694500     -0.29327600     -0.41352000     -1.15267900      0.46044500     -0.33079200      0.14523800     -0.48769200      0.11185700      0.06925700      0.40868500      0.24103100      0.44821800      0.37493500      0.43064500 
      0.06602600     -0.05482300      0.06428600     -0.05880000     -0.02247100     -0.00758500     -0.02434100      0.06067500     -0.08636900      0.12258000     -0.05295100      0.05922100      0.04453100      0.10775800      0.06691700      0.00496800     -0.02151200      0.06454600     -0.01004700     -0.33608800     -0.00260800      0.02636100      0.06135900     -0.08265300     -0.04350500      0.15167700      0.11184900     -0.06645200      0.11676100     -0.14595900      0.02281300      0.18791900     -0.01326200     -0.04632100      0.02014500      0.00830900     -0.04483800     -0.03653700     -0.06435000     -0.01857000      0.02134800     -0.12994300      0.08764200      0.00953900      0.05159400      0.04197400      0.06047300     -0.00652800      0.07085700      0.12369400      0.00484200     -0.02054900     -0.12207900      0.09869600     -0.04918800     -0.01727800     -0.02540600     -0.10840000     -0.09426800      0.06596300      0.05519200     -0.09997100      0.02499600     -0.04698400      0.12105100      0.06752700      0.04971500     -0.04411600      0.02326200     -0.05466400     -0.14030600     -0.14734600 
