      8.65140000       0.00000000       0.00000000    -4.32570000       7.49233218       0.00000000     0.00000000       0.00000000      26.48230000  
     14.35414800       0.00000000       0.00000000    -1.61363703       6.92539139       0.00000000    -0.77875434      -1.83343687       7.99410764  
      8.95140000       0.00000000       0.00000000    -4.47570000       7.75213980       0.00000000     0.00000000       0.00000000      26.48230000  
      8.65140000       0.00000000       0.00000000    -4.32570000       7.49233218       0.00000000     0.00000000       0.00000000      26.48230000  
