         0.46589831 0.48781123 15.66230767  7.00739645 1.32346672 15.35795559  0.29640583 7.36470868 20.53140396  5.85943611 1.50617094 21.26041313  0.25396913 6.52883559 16.37893084  1.27387698 7.16105605 22.43585009  3.90186547 1.16363953 22.14689205  3.72586003 4.77347307 18.78861536  2.65027590 2.84208769 18.30442946  3.45158606 2.64723100 10.89585282  1.46664947 1.92291855 10.17281932  7.05375834 2.56072433 13.50252907  -1.97569136 5.35391330 7.20786037  1.33951092 2.03613934 7.96503729  6.20062331 0.39164617 7.79905008  1.46024924 7.10494062 14.60141538  3.03554281 7.18600442 9.69243570  4.88208790 4.72613422 6.06862671  5.68430884 3.12448235 16.43384058  -1.47488245 5.27842823 15.40538721  1.80063868 0.04282513 13.75388289  -1.27897950 5.62959849 12.19502437  0.54332876 5.97998446 7.01488932  4.68146567 5.83112676 16.79359118  2.26678852 5.89364510 20.42666508  1.81779498 2.50840218 15.88848274  5.15931927 2.54217734 7.09390523  4.08252317 3.11268116 20.56227605  4.58103515 0.51464630 12.72196851  1.63817386 4.91626781 17.41814924  -2.10759563 5.01530967 9.55498080  2.75025987 0.23745925 7.43218215  1.24702350 6.05734057 10.90753108  2.83341064 5.20685223 14.40987151  3.92777056 1.13264053 17.26214111  2.66825753 3.86360585 7.33289675  0.41656647 3.78476592 13.77770408  -3.26643520 7.16772843 10.92126709  4.69179080 1.09245013 9.61668642  3.64104535 4.82274321 9.92503400  -0.01475490 3.59310449 10.86562154  5.28096548 4.19311654 13.68395079  -0.55056683 3.42642606 7.59683300  7.18332887 1.16797752 11.58951955  2.94449228 2.66867482 13.25862588  3.29752533 6.43827814 6.47756696 
         11.29774074 -0.51028667 7.64303585  0.95186767 -1.10642790 4.85654143  5.77247782 1.68074268 2.41911683  1.12228738 1.09208977 5.35859499  3.64477430 2.06937910 0.30062111  9.75099933 1.31925223 5.42225677  7.77203903 0.74584218 6.32118439  3.46247699 4.16973747 3.13165355  1.20574187 1.54078683 7.56461879  6.59881772 -0.13781474 1.38440506  7.10372937 2.39526876 7.69534350  3.54080073 1.98089422 2.63449598  12.93889576 4.51888293 0.01051893  11.20447684 3.97906574 3.27766630  11.99906090 6.06267246 3.40507234  10.33565596 1.51263876 7.58416824  9.63719105 3.71678909 5.06283974  7.41685699 3.29767052 3.10234735  11.80972999 2.05755431 1.95610967  3.29854594 5.13859967 0.73119242  3.50443609 -1.56332549 6.92621828  8.38165938 5.94924848 3.97620548  4.08748403 4.43526597 5.49556197  5.70258172 5.47330924 3.33674921  9.50408621 4.01021200 1.50979809  12.37774139 -0.42197780 5.42568646  3.46848664 1.36697085 5.22780659  -1.37602788 4.22447712 6.44890990  1.35359605 4.91420908 3.99246783  7.20232306 -1.25994638 7.51907436  6.13183163 0.97401343 4.65115746  -0.12292729 2.46425664 0.07881241  4.85545663 1.49350462 7.85061111  9.11914899 0.82169689 2.09989662  8.26954408 4.49110894 7.48729724 
         1.22426429 4.90151457 25.21367421  8.33737163 0.90427735 20.23777570  -0.99421479 4.41207338 19.39292789  0.13551206 2.32607910 21.84190579  3.37421735 5.24026175 25.51515788  4.67537537 4.59563304 14.81456883  2.62419085 4.51534937 23.59234534  2.23242737 6.60418650 24.20726575  0.49227549 6.29816056 15.40614821  1.54095905 0.49031219 17.44806476  3.97291328 3.71033370 16.73828565  5.80652852 3.27081478 22.02969186  -1.13136112 4.10883772 21.56092944  3.36741291 1.64072490 16.26044455  0.62019607 2.99660066 6.03623178  1.77479389 4.70352727 16.76500499  0.97254219 2.93577260 11.86513365  1.74904402 6.73431205 7.61861144  5.76314151 1.49714638 20.38280532  -3.01137526 7.42155139 11.86000061  4.81181579 3.73400503 6.52170210  -3.03312367 7.19603329 5.94222170  4.47854819 6.43129810 20.45708310  0.60194734 6.08981521 3.90504143  2.35222227 3.36052930 20.84499181  0.38036884 5.55412846 22.92284584  3.50112291 3.50189276 12.94316351  -2.00385543 6.52982831 18.81604803  8.33363672 0.65782986 13.47223534  2.64855760 5.92843960 14.18054015  7.12875415 1.76212826 16.09856878  3.04661211 2.70175347 4.22093772  1.89867046 5.71041004 11.38735044  -0.07020589 2.46863288 18.26137939  5.81489121 3.84998170 18.24699766  -1.97794501 5.38195240 15.00867547  -1.16868720 5.23516401 12.14839751  2.54632625 0.96781511 14.13119495  6.17403194 2.88531585 13.60834011  5.57406309 3.85638511 10.93788107  0.35276707 3.37492018 14.62975518  6.69441528 0.87776840 11.22312949  -1.23114186 5.03952195 9.16144156  0.50396927 7.52799569 13.18589900  4.79314078 7.00980326 15.80332452  3.78590322 1.49159947 10.93110362  0.61650399 7.33718945 18.88949852  1.39408691 5.25424889 19.08177512  4.57047978 4.08925560 20.42655329  5.36109998 0.26496513 16.76456622  4.89508504 0.94958056 7.04056100  3.85348140 0.35900867 5.16253494  3.34415411 0.98824625 8.64244356  -0.04269243 3.03044831 9.60094597  4.86110832 6.63524361 3.81295674  3.31213455 5.19416984 4.48459592  2.69388138 7.20406604 3.64409552  -1.76059056 4.87613778 3.58334511  3.79945571 5.18852361 10.03263068  6.77240933 2.70357225 3.42139960  -2.50316024 6.83781520 8.26525874  3.52117212 7.04154276 5.66043999  1.82936749 2.90759869 8.05006415  -4.09255774 7.13129856 9.77666649  7.86945727 0.92900926 9.14547954  0.20432168 3.36926224 3.72850353  -1.94273559 3.63125930 5.40787529  3.10571740 4.72217379 7.99878699 
         3.31275510 5.27253461 18.63857613  4.57262466 6.13436628 7.59494599  1.37125751 4.82176391 11.97690526  6.01837200 2.71273354 17.07735358  -1.30187531 2.85777976 9.54833606  4.19345464 4.81717023 11.79920256  3.67153502 1.58879548 14.92427110  2.80018558 2.28943072 12.27780929  1.52746637 5.29269142 17.11203194  -0.10527636 2.31891437 12.12304929  -1.18297805 5.33116121 16.91707938  6.56751419 1.48024217 14.58585145  -2.12012591 6.55889871 14.34876949  2.76527776 7.31700477 11.78843241  2.90992192 5.32000359 9.04596623  7.47002580 0.25378896 17.70092118  1.57553118 2.88226529 9.69963820  -0.13601472 7.28409572 11.86362526  3.62782246 6.51089718 14.33091559  3.02436002 0.41739976 9.31070333  -3.01987933 7.34052721 11.71058999  -1.57112534 4.82203432 11.89995535  5.63948083 2.30597954 12.01514305  5.11045097 3.99376757 14.39094333  0.17237962 2.74931378 17.12311022  0.79526087 1.50879804 14.65313899  0.74948463 6.55371377 14.49871301  0.16930885 0.56343889 8.96668487  0.15603895 5.37758626 9.43343736  1.79123079 0.43118212 17.13974302  5.87956741 0.42804926 9.33264021  -2.64576539 5.29896840 9.24001489  2.19351117 4.01429670 14.60765635  4.58827225 0.33828556 17.33862303  -0.66966429 4.01944074 14.50103094  4.74277420 5.37538761 16.76284309  3.13289408 2.90033191 17.41318892  4.41224586 2.87127203 9.47185967 
