 -180.244402 
 -142.232238 
 -182.854010 
 -122.004495 
