 -0.46104200 0.07383900 0.13638900 0.12708400 0.26731100 0.05329400 -1.00717500 -0.10022300 -2.04994100 1.59442900 0.49809500 -0.66918400 0.09671600 0.10922100 -0.01675500 0.78960000 -0.12864900 1.73374000 -1.38409200 -0.21064700 0.90921900 0.54930700 0.24939800 0.46729100 -0.34919400 -0.49739500 0.10000200 -0.22012000 -0.43285500 -0.38986500 0.19347700 0.37323200 -0.02338000 0.24861900 -0.04079200 -0.15165600 -0.11011400 -0.10115800 0.18560800 -0.06762100 0.05016100 0.32944000 0.14230900 -0.04189700 -0.58738000 -0.06795100 0.17762000 0.14347300 -0.18890000 -0.23485900 -0.05448500 0.55699300 -0.12048200 -0.49628200 0.02489300 0.16451000 0.05269500 -0.00644100 0.21355500 0.19097100 -0.13942100 0.15691100 -0.09843600 -0.05862300 -0.06259900 -0.00903100 -0.12437900 0.04909200 0.28886100 0.14796000 -0.08250600 -0.06272500 0.51756000 -0.76720400 -0.55870600 -0.16964400 -0.05367600 -0.28248400 0.35325500 -0.26555900 0.41484400 -0.23066800 0.66807800 -0.03228600 0.02754700 -0.02827500 0.03192500 -0.49522100 0.38132800 -0.17572600 0.02263600 0.04851100 0.12580200 -0.14479600 -0.07978400 -0.22537500 -0.10640900 0.07400500 -0.19546800 -0.09705300 -0.18161100 0.10332700 -0.05077000 -0.25403400 0.22803200 0.08899600 0.07704300 -0.03067700 0.13139500 0.14187900 0.01060900 0.16693300 0.05446500 -0.02803800 0.15188500 0.06815100 0.18241300 0.05046300 0.19054100 0.43257100 -0.09050000 -0.00019500 -0.15815800 0.04242400 -0.26484600 0.12880500 -0.23391400 -0.17702300 -0.15076200 -0.35649400 0.06213700 -0.04351900 -0.03685700 0.08871100 -0.01601900 0.17291900 -0.11152700 0.25702800 
 -0.12555100 -0.12532900 0.30418300 0.35383400 -0.12481500 0.07236400 -0.03867200 0.17187700 0.27072400 0.08147700 0.47170100 0.03329900 -0.21738000 0.20295700 -0.25997200 -0.56040900 0.03346900 0.20753700 -0.18277100 0.33337300 -0.14350900 0.07436500 0.01419800 -0.26258400 -0.01964900 -0.49401300 -0.02624800 -0.22384700 -0.01341700 0.03840200 0.08297900 -0.59063000 0.15690900 -0.06685900 -0.20515400 -0.31916100 -0.14409200 0.01001000 0.34972800 -0.11872100 -0.15440300 -0.15191100 0.02384100 -0.09588700 -0.01926500 0.67657800 0.45095000 -0.62569800 -0.20562400 0.01960900 0.11957700 0.02034200 -0.04482400 0.01645300 0.33161800 -0.32644600 0.60783600 -0.01030400 0.38589400 -0.28077900 -0.00122300 -0.18741000 -0.10207800 -0.11738900 0.13720700 0.14471100 -0.04445500 -0.20454500 -0.04554300 -0.05968700 0.04806300 -0.00698900 0.06375700 0.19004400 -0.22993100 -0.10217500 -0.32007200 0.10778500 0.24514600 0.04645000 -0.15165200 -0.28201700 -0.02371000 0.10204400 0.14664500 0.08152000 0.16523300 -0.25070800 0.23116900 0.15829200 0.45373800 -0.17427400 -0.15013000 0.16013200 -0.26807700 0.11665000 0.15367900 0.25389700 -0.05824300 0.05704500 0.17119400 0.03184600 -0.15364500 0.09942300 -0.16988100 
 -0.65735000 -0.58096900 1.57871500 -0.29251400 1.30884400 0.33057100 -0.30239200 0.38781200 -0.61530500 0.77374300 -0.81062700 -0.50839000 -0.12362600 0.27386400 0.22393900 -0.00073900 0.07708200 0.14021700 1.22962300 -1.11366400 -0.77196900 0.52046300 1.37982500 -0.03918500 -1.25654100 -1.96479100 -1.47592800 -0.13611500 1.50481000 0.01267500 -0.20296000 0.06568300 0.14252700 1.42776000 -0.68790600 1.81726500 0.37638700 -0.14201700 0.38617500 -0.55053800 -1.13627600 0.04944700 -1.05706900 -0.62645800 0.39947100 0.46593600 -0.97588000 -3.77087500 0.83930300 -0.06046900 2.41989300 -0.45373600 0.17148900 0.97760400 1.06996000 0.82114000 0.97320500 2.58663500 0.96543100 4.34589800 -0.21250100 -1.04143900 -0.58423700 3.98272300 1.39461700 -0.08183000 -0.32048100 4.52954100 -0.04538300 -3.15262900 -1.41868100 0.06585600 -4.68122200 -1.75093900 1.12256100 -1.54259300 -0.49962000 -1.28890300 -0.25360400 -0.27950700 -0.35152100 -0.40463300 -0.04448800 -0.26856400 0.15051500 0.86105400 0.23531200 -0.04675400 -0.00090900 0.10508400 3.05797000 2.50282500 -1.45781200 -0.71480800 -0.97963900 -0.25086400 -3.55441600 0.65833200 2.34629400 0.76489600 -0.98683000 0.02725100 1.30660600 -0.38614000 -2.24975800 1.10015100 0.05763500 -0.15163900 0.31189300 -0.10789100 -0.22714800 -0.41460000 0.17698400 -0.43981200 0.67190800 -0.58711800 -0.12723100 3.24326500 -2.47988200 1.51788500 -0.37261300 -0.18541200 -0.13423400 -2.49285100 0.23017300 3.52306000 0.11764500 0.33043700 1.07107100 -0.19851400 0.04470900 -0.21718200 0.32245900 0.45306200 0.12192800 0.78695200 0.81947900 4.12061900 -3.68136100 4.56005100 6.24238300 2.35937700 -6.91678300 4.45985800 1.36797200 -1.74635800 -0.58152100 -1.55860500 1.77575400 -5.51169900 8.94510000 4.41852800 0.50628600 -3.58495900 -2.55670700 -7.32905300 -2.76417600 1.27846400 3.88535800 0.12600300 0.35770700 1.31831000 18.22578100 2.24978500 -10.33682200 -5.58815200 -21.76246100 0.28915000 -11.72407600 12.78280000 -14.60912600 -0.36132200 17.10138600 -7.56618700 -0.81384200 -4.52050900 6.95904200 -5.43627800 -15.13310100 -10.15082300 3.06885800 -2.34703600 -5.40321400 -1.52229000 9.37896200 20.87796300 -1.80392600 -6.25956500 1.79501000 1.33226400 2.16704100 3.90980800 -5.96615400 3.13738700 -6.99295400 5.06152700 -0.87608400 -4.07683700 1.05120900 -1.32334200 17.02194100 1.55605300 4.06680500 -7.70362700 
 0.03399000 0.09576500 -0.16680300 -0.05767900 0.13986600 0.00261200 -0.03286100 0.03183300 0.07522900 0.12378600 0.20864200 0.06693200 -0.01198100 0.07249400 0.05262000 0.03492700 0.09199400 -0.16431700 0.06036900 -0.30839800 -0.27861400 0.02254300 -0.07805200 0.05933400 0.04774800 0.22460200 0.08811100 -0.09255100 -0.09242400 -0.00038200 -0.11522200 0.08393700 0.09255700 0.07525600 -0.08466900 -0.16499900 -0.05411700 -0.11680000 0.04972400 0.11823500 0.05424500 0.08412400 -0.04704700 0.07385300 0.20869200 0.04446400 -0.23417400 -0.26037600 -0.01504100 0.01282500 0.09086100 0.07270800 0.13839500 0.17771200 0.11872300 -0.08525000 0.07054100 -0.00553100 -0.06465600 0.00783400 -0.08012500 0.01309800 0.04380100 -0.12028900 -0.03415100 -0.04728000 0.06424300 -0.05756200 0.03604000 0.12486100 -0.05851800 -0.26572500 -0.15221000 0.02891900 0.17858000 -0.05987400 -0.19793300 -0.25874700 0.04160900 -0.10312400 0.00007400 -0.14527500 -0.13040500 0.04858800 -0.09294400 0.11405800 0.05103700 -0.17921900 -0.21153500 -0.11156500 -0.09719800 -0.08482600 -0.01565100 -0.03483100 0.03819200 0.13432800 0.12135100 0.18420700 -0.08245800 0.08961700 -0.08311600 -0.08902700 0.08151400 -0.16774100 -0.18370200 -0.05461500 0.19766900 0.15506200 0.13721600 0.33577800 0.21714500 0.03544900 0.05296200 0.09810800 
