# Converted from POSCAR to lammps format

132 atoms
2 atom types

0.000000   14.000000   xlo xhi
0.000000   12.124356   ylo yhi
0.000000   35.000000   zlo zhi

 -7.000000    0.000000    0.000000   xy xz yz

Atoms

   1  1   0.000000 0.000000 0.000000
   2  1   1.429514 0.897172 4.842707
   3  1   0.016668 1.588331 2.457941
   4  1   2.800000 0.000000 0.000000
   5  1   4.228490 0.907026 4.816965
   6  1   2.824943 1.591137 2.444293
   7  1   5.600000 0.000000 0.000000
   8  1   7.009708 0.916175 4.819737
   9  1   5.623941 1.586423 2.436875
  10  1   8.400000 0.000000 0.000000
  11  1   9.791365 0.908202 4.815660
  12  1   8.406401 1.584054 2.436220
  13  1   11.200000 0.000000 0.000000
  14  1   12.592540 0.898322 4.836805
  15  1   11.206309 1.589347 2.441717
  16  1   -1.400000 2.424871 0.000000
  17  1   0.018447 3.332945 5.003238
  18  1   -1.396708 4.030170 2.576546
  19  1   1.400000 2.424871 0.000000
  20  1   2.830145 3.345983 5.079405
  21  1   1.433410 4.033005 2.570969
  22  1   4.200000 2.424871 0.000000
  23  1   5.618704 3.325090 5.382003
  24  1   4.250027 4.019127 2.654549
  25  1   7.000000 2.424871 0.000000
  26  1   8.419636 3.325865 5.385929
  27  1   7.019848 3.993224 2.885098
  28  1   9.800000 2.424871 0.000000
  29  1   11.204967 3.345894 5.093210
  30  1   9.788841 4.014701 2.663397
  31  1   -2.800000 4.849742 0.000000
  32  1   -1.374809 5.758146 5.355944
  33  1   -2.789678 6.403561 2.829123
  34  1   0.000000 4.849742 0.000000
  35  1   1.414880 5.758268 5.360797
  36  1   0.020595 6.414041 2.816239
  37  1   2.800000 4.849742 0.000000
  38  1   4.217384 5.748723 5.422915
  39  1   2.829330 6.406250 2.834049
  40  1   5.600000 4.849742 0.000000
  41  1   7.020578 5.736465 5.626091
  42  1   5.631924 6.391017 2.914071
  43  1   8.400000 4.849742 0.000000
  44  1   9.821402 5.749137 5.424926
  45  1   8.409192 6.389513 2.916642
  46  1   -4.200000 7.274614 0.000000
  47  1   -2.775327 8.170269 5.379716
  48  1   -4.180320 8.780201 2.687664
  49  1   -1.400000 7.274614 0.000000
  50  1   0.022212 8.188186 5.591073
  51  1   -1.376851 8.792748 2.858527
  52  1   1.400000 7.274614 0.000000
  53  1   2.815852 8.171544 5.396999
  54  1   1.413071 8.794099 2.875266
  55  1   4.200000 7.274614 0.000000
  56  1   5.617922 8.164427 5.329966
  57  1   4.216628 8.781584 2.698614
  58  1   7.000000 7.274614 0.000000
  59  1   8.418610 8.165267 5.326104
  60  1   7.019110 8.773069 2.648503
  61  1   -5.600000 9.699485 0.000000
  62  1   -4.164667 10.576732 5.050708
  63  1   -5.575106 11.220415 2.516525
  64  1   -2.800000 9.699485 0.000000
  65  1   -1.374234 10.600145 5.300674
  66  1   -2.765176 11.202351 2.552502
  67  1   0.000000 9.699485 0.000000
  68  1   1.410627 10.602056 5.319847
  69  1   0.017475 11.191454 2.624534
  70  1   2.800000 9.699485 0.000000
  71  1   4.196677 10.579083 5.068498
  72  1   2.799383 11.200264 2.559869
  73  1   5.600000 9.699485 0.000000
  74  1   7.015146 10.582540 4.990707
  75  1   5.606424 11.218113 2.517757
  76  1   1.453406 0.814596 7.533157
  77  1   4.251515 0.816508 7.498769
  78  1   7.112109 0.818513 7.495749
  79  1   9.971752 0.817854 7.492732
  80  1   12.770427 0.814689 7.523742
  81  1   0.106871 3.365269 7.675164
  82  1   2.845086 3.191785 7.776558
  83  1   5.667504 3.083945 8.100187
  84  1   8.546896 3.083524 8.096876
  85  1   11.370006 3.189692 7.781504
  86  1   -1.287177 5.806113 8.042562
  87  1   1.496558 5.806591 8.050089
  88  1   4.281688 5.542009 8.093749
  89  1   7.106185 5.470886 8.331447
  90  1   9.928795 5.538798 8.091776
  91  1   -2.718759 8.209709 8.061329
  92  1   0.107387 8.279940 8.306601
  93  1   2.930994 8.211071 8.074518
  94  1   5.713161 7.945962 8.027191
  95  1   8.497437 7.944125 8.023275
  96  1   -4.155959 10.561405 7.757200
  97  1   -1.329003 10.660520 8.036498
  98  1   1.546845 10.663159 8.050115
  99  1   4.369035 10.564728 7.767787
 100  1   7.105552 10.385875 7.659848
 101  2   -1.471233 5.806823 10.497004
 102  2   0.108932 4.663372 11.596131
 103  2   1.704019 5.798091 10.503905
 104  2   -3.067051 8.585666 10.456614
 105  2   -1.597955 7.578907 11.832843
 106  2   0.120523 8.558303 10.749959
 107  2   1.830719 7.570294 11.838530
 108  2   3.307839 8.566144 10.465224
 109  2   -3.196014 10.562041 11.433069
 110  2   -1.473656 11.424570 10.351147
 111  2   0.119358 10.607736 11.641819
 112  2   1.722387 11.422216 10.364313
 113  2   3.439415 10.541155 11.442556
 114  2   8.711696 7.938460 10.484261
 115  2   7.131836 9.086083 11.580087
 116  2   5.539480 7.942234 10.492575
 117  2   10.308644 5.167799 10.480387
 118  2   8.841288 6.186427 11.845412
 119  2   7.123736 5.187613 10.775197
 120  2   5.411336 6.186126 11.849235
 121  2   3.934627 5.176946 10.485918
 122  2   10.441542 3.196261 11.465220
 123  2   8.715623 2.315696 10.402437
 124  2   7.123091 3.146793 11.685908
 125  2   5.523241 2.318692 10.408992
 126  2   3.797437 3.205198 11.467761
 127  2   0.114740 3.048594 10.080431
 128  2   -4.696053 11.447893 10.005717
 129  2   4.933760 11.433768 10.016079
 130  2   2.309520 2.323100 10.029253
 131  2   11.927831 2.312747 10.026644
 132  2   7.123179 10.697038 10.064542
