 3.109570  5.597410  2.771860  1.850690  6.321660  0.736290  4.390820  7.802660  2.764760  4.383800  4.845560  4.760630  0.551250  8.550070  0.733660  0.548550  5.569360  2.737680  3.093540  7.066750  4.838200  3.123380  8.568410  0.743650  0.547240  7.054550  4.737490  4.408090  6.334930  0.735760  1.844220  7.792510  2.737680  1.806050  4.829260  4.733810  4.405930  1.883460  0.735760  3.121450  4.118100  0.742600  3.108800  1.144250  2.772650  0.543700  1.118880  2.738470  3.090450  2.616890  4.833470  4.391900  3.354140  2.761080  4.376400  0.388130  4.763780  1.849380  3.339800  2.744250  1.794020  0.371830  4.733810  0.532510  2.602370  4.736960  0.555570  4.098240  0.733130  1.845300  1.871980  0.735760  6.991240  6.321660  0.736290  5.691800  8.550070  0.733660  5.689100  5.569360  2.737680  5.687870  7.054550  4.737490  6.984760  7.792510  2.737680  6.946670  4.829260  4.733810  5.684240  1.118880  2.738470  6.990010  3.339800  2.744250  6.934570  0.371830  4.733810  5.673140  2.602370  4.736960  5.696120  4.098240  0.733130  6.985840  1.871980  0.735760  1.910610  4.783590  7.460170  4.585980  4.781360  7.546690  0.660590  7.010920  7.529860  1.893870  6.258180  7.479630  1.895800  0.341380  7.455440  3.381150  7.047610  7.523020  4.575340  6.265210  7.550370  4.579890  0.330690  7.547220  0.665140  8.491830  7.531170  0.691590  2.560170  7.514870  1.937210  1.814100  7.447030  3.386780  8.449810  7.529070  3.404900  2.593910  7.523020  4.598780  1.813120  7.547740  0.677560  4.036090  7.522230  3.398420  3.993530  7.529600  7.051160  4.783590  7.460170  5.801220  7.010920  7.529860  7.034420  6.258180  7.479630  7.036430  0.341380  7.455440  5.805690  8.491830  7.531170   
 3.111460  5.606370  2.762250  1.850690  6.321660  0.736290  4.378710  7.818780  2.769890  4.383110  4.854430  4.764020  0.551250  8.550070  0.733660  0.560370  5.580770  2.729280  3.099420  7.072380  4.836670  3.123380  8.568410  0.743650  0.537310  7.051580  4.732940  4.408090  6.334930  0.735760  1.842620  7.786700  2.741350  1.819650  4.836960  4.729930  4.405930  1.883460  0.735760  3.121450  4.118100  0.742600  3.120330  1.137510  2.767120  0.535540  1.139470  2.748350  3.092690  2.609530  4.805100  4.391640  3.336590  2.771270  4.360990  0.379720  4.764180  1.864270  3.322390  2.753230  1.780390  0.366250  4.734360  0.526010  2.612110  4.734150  0.555570  4.098240  0.733130  1.845300  1.871980  0.735760  6.991240  6.321660  0.736290  5.691800  8.550070  0.733660  5.695620  5.573500  2.739970  5.692590  7.058950  4.732930  6.989080  7.794700  2.740470  6.942740  4.833100  4.736340  5.687100  1.116150  2.741180  6.996500  3.345290  2.738780  6.937560  0.392260  4.735970  5.667000  2.604320  4.726400  5.696120  4.098240  0.733130  6.985840  1.871980  0.735760  1.924490  4.777280  7.475070  4.600010  4.804300  7.556200  0.704610  7.003710  7.523510  1.886780  6.224440  7.461830  1.899490  0.358770  7.429310  3.380350  7.016920  7.487580  4.536860  6.251550  7.582760  4.589000  0.321210  7.532040  0.706470  8.498150  7.527610  0.698390  2.575330  7.556300  1.951020  1.823450  7.467370  3.352190  8.510460  7.527060  3.383390  2.603790  7.543490  4.592410  1.775690  7.516530  0.670150  4.013390  7.506740  3.397770  4.031040  7.507240  7.056990  4.773380  7.424230  5.781950  7.020800  7.521180  7.030100  6.271240  7.486180  7.052070  0.321440  7.441470  5.840550  8.531610  7.516350  5.835000  2.534590  7.506430 
 3.113420  5.615270  2.752710  1.850690  6.321660  0.736290  4.366680  7.834830  2.775020  4.382510  4.863240  4.767600  0.551250  8.550070  0.733660  0.572140  5.592090  2.720970  3.105340  7.078010  4.835100  3.123380  8.568410  0.743650  0.527390  7.048600  4.728480  4.408090  6.334930  0.735760  1.841020  7.780970  2.745110  1.833270  4.844650  4.726170  4.405930  1.883460  0.735760  3.121450  4.118100  0.742600  3.131820  1.130730  2.761610  0.527410  1.159960  2.758180  3.094920  2.602150  4.776760  4.391410  3.319140  2.781410  4.345610  0.371330  4.764600  1.879080  3.305110  2.762240  1.766870  0.360720  4.735100  0.519480  2.621820  4.731640  0.555570  4.098240  0.733130  1.845300  1.871980  0.735760  6.991240  6.321660  0.736290  5.691800  8.550070  0.733660  5.702080  5.577620  2.742270  5.697260  7.063390  4.728440  6.993330  7.796930  2.743280  6.938790  4.836900  4.739290  5.689940  1.113450  2.743890  7.002900  3.350830  2.733310  6.940580  0.412690  4.738570  5.660960  2.606290  4.716400  5.696120  4.098240  0.733130  6.985840  1.871980  0.735760  1.942230  4.770430  7.489760  4.611520  4.830840  7.564340  0.741480  6.997410  7.516040  1.890610  6.192900  7.445460  1.915640  0.373840  7.405240  3.363320  6.988310  7.452390  4.504940  6.236620  7.613430  4.594200  0.311740  7.516810  0.739440  8.504760  7.521770  0.712890  2.590040  7.595810  1.963830  1.836400  7.489540  3.309940  8.568730  7.523020  3.353610  2.607740  7.561720  4.590130  1.743700  7.485950  0.655990  3.990720  7.491170  3.391960  4.070970  7.485530  7.066390  4.771040  7.386780  5.767000  7.032090  7.513320  7.030650  6.280760  7.493380  7.077110  0.298740  7.425980  5.873910  8.564850  7.501810  5.838110  2.505170  7.494760 
 3.115490  5.624050  2.743270  1.850690  6.321660  0.736290  4.354770  7.850740  2.780130  4.381990  4.871960  4.771320  0.551250  8.550070  0.733660  0.583820  5.603250  2.712780  3.111270  7.083610  4.833560  3.123380  8.568410  0.743650  0.517500  7.045640  4.724140  4.408090  6.334930  0.735760  1.839400  7.775400  2.748940  1.846880  4.852300  4.722500  4.405930  1.883460  0.735760  3.121450  4.118100  0.742600  3.143200  1.123890  2.756110  0.519370  1.180270  2.767920  3.097120  2.594780  4.748560  4.391270  3.301900  2.791420  4.330310  0.362980  4.765050  1.893750  3.288040  2.771210  1.753480  0.355280  4.736010  0.512940  2.631520  4.729440  0.555570  4.098240  0.733130  1.845300  1.871980  0.735760  6.991240  6.321660  0.736290  5.691800  8.550070  0.733660  5.708460  5.581710  2.744560  5.701870  7.067890  4.724070  6.997500  7.799250  2.746080  6.934870  4.840650  4.742700  5.692750  1.110760  2.746580  7.009190  3.356440  2.727840  6.943620  0.433080  4.741610  5.655020  2.608300  4.706990  5.696120  4.098240  0.733130  6.985840  1.871980  0.735760  1.962340  4.761320  7.502980  4.619250  4.857160  7.571380  0.767810  6.993600  7.507650  1.906650  6.166070  7.430780  1.944400  0.387500  7.384300  3.328260  6.965970  7.418150  4.483290  6.224960  7.641020  4.593980  0.303420  7.501400  0.762510  8.509370  7.513280  0.734450  2.601700  7.633180  1.975480  1.854090  7.513170  3.264750  8.617660  7.515930  3.319090  2.606640  7.576510  4.591010  1.722130  7.456950  0.637460  3.971260  7.476510  3.381070  4.108340  7.465930  7.078180  4.776970  7.347800  5.758710  7.044000  7.507090  7.035400  6.286620  7.500200  7.113860  0.276090  7.409000  5.900840  8.586320  7.488000  5.840350  2.472130  7.479630 
 3.117700  5.632700  2.733950  1.850690  6.321660  0.736290  4.343050  7.866440  2.785180  4.381550  4.880570  4.775130  0.551250  8.550070  0.733660  0.595390  5.614190  2.704760  3.117200  7.089170  4.832100  3.123380  8.568410  0.743650  0.507690  7.042680  4.719940  4.408090  6.334930  0.735760  1.837770  7.770020  2.752830  1.860430  4.859890  4.718880  4.405930  1.883460  0.735760  3.121450  4.118100  0.742600  3.154410  1.116990  2.750620  0.511450  1.200340  2.777500  3.099280  2.587430  4.720630  4.391220  3.284960  2.801190  4.315120  0.354710  4.765580  1.908240  3.271260  2.780070  1.740240  0.349960  4.737050  0.506430  2.641230  4.727550  0.555570  4.098240  0.733130  1.845300  1.871980  0.735760  6.991240  6.321660  0.736290  5.691800  8.550070  0.733660  5.714750  5.585750  2.746830  5.706390  7.072480  4.719830  7.001560  7.801670  2.748860  6.931000  4.844350  4.746600  5.695550  1.108080  2.749250  7.015340  3.362160  2.722390  6.946640  0.453380  4.745080  5.649210  2.610320  4.698240  5.696120  4.098240  0.733130  6.985840  1.871980  0.735760  1.983320  4.749090  7.513690  4.622240  4.879200  7.577460  0.782350  6.992610  7.498520  1.933730  6.147140  7.417950  1.982020  0.400930  7.367340  3.277450  6.950080  7.385640  4.472060  6.222200  7.664180  4.588050  0.296880  7.485610  0.776240  8.510720  7.501820  0.761480  2.608580  7.668320  1.986450  1.876060  7.537770  3.222410  8.652820  7.505320  3.283530  2.602380  7.586780  4.593920  1.713440  7.430320  0.616980  3.957750  7.463520  3.365690  4.138660  7.449860  7.091410  4.790740  7.307330  5.758560  7.055560  7.503180  7.043840  6.289260  7.505600  7.162010  0.255320  7.390620  5.918130  8.593440  7.475230  5.840890  2.436400  7.460800 
 3.120080  5.641180  2.724800  1.850690  6.321660  0.736290  4.331560  7.881870  2.790120  4.381210  4.889070  4.778990  0.551250  8.550070  0.733660  0.606830  5.624850  2.696920  3.123100  7.094640  4.830750  3.123380  8.568410  0.743650  0.497980  7.039740  4.715910  4.408090  6.334930  0.735760  1.836130  7.764900  2.756770  1.873900  4.867410  4.715270  4.405930  1.883460  0.735760  3.121450  4.118100  0.742600  3.165390  1.110000  2.745130  0.503670  1.220080  2.786880  3.101410  2.580080  4.693100  4.391320  3.268390  2.810640  4.300070  0.346560  4.766230  1.922490  3.254850  2.788740  1.727150  0.344770  4.738190  0.499960  2.651000  4.725980  0.555570  4.098240  0.733130  1.845300  1.871980  0.735760  6.991240  6.321660  0.736290  5.691800  8.550070  0.733660  5.720930  5.589740  2.749080  5.710800  7.077170  4.715730  7.005500  7.804220  2.751600  6.927190  4.847970  4.751030  5.698340  1.105400  2.751870  7.021340  3.368020  2.716970  6.949640  0.473570  4.749000  5.643550  2.612370  4.690180  5.696120  4.098240  0.733130  6.985840  1.871980  0.735760  2.003440  4.734380  7.521050  4.619810  4.894120  7.582580  0.785660  6.993500  7.488810  1.968180  6.138860  7.406990  2.020930  0.415780  7.354840  3.216750  6.939230  7.355920  4.469130  6.232800  7.681360  4.577410  0.292700  7.469230  0.783070  8.508430  7.487210  0.791470  2.610770  7.701130  1.997500  1.900220  7.562680  3.189740  8.670750  7.491280  3.251060  2.597460  7.591810  4.597230  1.717330  7.406640  0.596760  3.951370  7.452760  3.347100  4.158420  7.438520  7.105430  4.811230  7.265590  5.766900  7.066000  7.502120  7.055790  6.289530  7.508710  7.217310  0.237060  7.370900  5.925720  8.586130  7.463550  5.839370  2.399530  7.438120 
 3.122660  5.649460  2.715830  1.850690  6.321660  0.736290  4.320340  7.896960  2.794930  4.380960  4.897450  4.782870  0.551250  8.550070  0.733660  0.618100  5.635200  2.689300  3.128950  7.099990  4.829560  3.123380  8.568410  0.743650  0.488380  7.036800  4.712070  4.408090  6.334930  0.735760  1.834470  7.760060  2.760740  1.887260  4.874840  4.711640  4.405930  1.883460  0.735760  3.121450  4.118100  0.742600  3.176100  1.102930  2.739600  0.496060  1.239460  2.796010  3.103500  2.572730  4.666100  4.391600  3.252260  2.819670  4.285210  0.338570  4.767050  1.936440  3.238870  2.797130  1.714210  0.339730  4.739420  0.493530  2.660850  4.724760  0.555570  4.098240  0.733130  1.845300  1.871980  0.735760  6.991240  6.321660  0.736290  5.691800  8.550070  0.733660  5.727000  5.593690  2.751300  5.715070  7.081990  4.711780  7.009320  7.806930  2.754290  6.923470  4.851530  4.756020  5.701130  1.102720  2.754440  7.027170  3.374060  2.711600  6.952600  0.493610  4.753400  5.638050  2.614440  4.682850  5.696120  4.098240  0.733130  6.985840  1.871980  0.735760  2.020530  4.719400  7.524560  4.611540  4.901720  7.586720  0.779370  6.994760  7.478730  2.003720  6.141670  7.397930  2.051890  0.434080  7.346810  3.154820  6.933080  7.330200  4.472040  6.257500  7.691010  4.564090  0.291240  7.452040  0.786840  8.502350  7.469600  0.820840  2.610390  7.731310  2.009150  1.923070  7.587080  3.173620  8.668620  7.474310  3.226300  2.594770  7.591270  4.598730  1.731290  7.386230  0.578940  3.951500  7.444690  3.327460  4.165200  7.432770  7.119770  4.836690  7.222910  5.782920  7.074870  7.504220  7.071330  6.288700  7.508850  7.272390  0.221770  7.349890  5.925700  8.566170  7.452800  5.836110  2.363540  7.411550 
 3.125480  5.657530  2.707050  1.850690  6.321660  0.736290  4.309440  7.911640  2.799570  4.380830  4.905720  4.786770  0.551250  8.550070  0.733660  0.629190  5.645200  2.681930  3.134710  7.105200  4.828500  3.123380  8.568410  0.743650  0.478910  7.033860  4.708420  4.408090  6.334930  0.735760  1.832780  7.755560  2.764750  1.900490  4.882180  4.707960  4.405930  1.883460  0.735760  3.121450  4.118100  0.742600  3.186480  1.095750  2.734020  0.488630  1.258430  2.804860  3.105560  2.565340  4.639760  4.392120  3.236660  2.828160  4.270550  0.330760  4.768090  1.950040  3.223390  2.805150  1.701420  0.334840  4.740710  0.487160  2.670850  4.723920  0.555570  4.098240  0.733130  1.845300  1.871980  0.735760  6.991240  6.321660  0.736290  5.691800  8.550070  0.733660  5.732960  5.597570  2.753480  5.719170  7.086960  4.707960  7.013010  7.809840  2.756920  6.919840  4.855000  4.761590  5.703930  1.100020  2.756940  7.032830  3.380340  2.706270  6.955510  0.513500  4.758310  5.632750  2.616540  4.676300  5.696120  4.098240  0.733130  6.985840  1.871980  0.735760  2.031990  4.707370  7.523960  4.597220  4.904650  7.589920  0.765600  6.994880  7.468450  2.031490  6.152340  7.390900  2.068780  0.456380  7.343130  3.102770  6.934170  7.309470  4.478930  6.292690  7.691860  4.550630  0.292270  7.433870  0.792100  8.492300  7.449580  0.845380  2.610860  7.758430  2.021340  1.940490  7.610210  3.177250  8.645850  7.454680  3.214040  2.597130  7.585100  4.595790  1.751670  7.369160  0.565650  3.956430  7.439680  3.309540  4.157740  7.433080  7.134270  4.864820  7.179610  5.804880  7.081700  7.509480  7.090590  6.288360  7.505610  7.318840  0.210480  7.327470  5.920750  8.536630  7.442680  5.832070  2.330510  7.381120 
 3.128560  5.665370  2.698490  1.850690  6.321660  0.736290  4.298880  7.925860  2.804030  4.380830  4.913920  4.790670  0.551250  8.550070  0.733660  0.640080  5.654790  2.674800  3.140360  7.110230  4.827550  3.123380  8.568410  0.743650  0.469570  7.030920  4.704960  4.408090  6.334930  0.735760  1.831070  7.751430  2.768800  1.913590  4.889410  4.704200  4.405930  1.883460  0.735760  3.121450  4.118100  0.742600  3.196510  1.088460  2.728360  0.481400  1.276960  2.813390  3.107580  2.557850  4.614240  4.392940  3.221630  2.836010  4.256090  0.323160  4.769410  1.963230  3.208460  2.812690  1.688790  0.330120  4.742080  0.480870  2.681030  4.723480  0.555570  4.098240  0.733130  1.845300  1.871980  0.735760  6.991240  6.321660  0.736290  5.691800  8.550070  0.733660  5.738800  5.601400  2.755620  5.723090  7.092100  4.704250  7.016570  7.812970  2.759450  6.916300  4.858410  4.767790  5.706750  1.097290  2.759380  7.038300  3.386890  2.701000  6.958330  0.533230  4.763770  5.627640  2.618670  4.670570  5.696120  4.098240  0.733130  6.985840  1.871980  0.735760  2.035390  4.701340  7.519280  4.577120  4.906780  7.592220  0.746900  6.992740  7.458150  2.041680  6.164610  7.386250  2.072380  0.479510  7.343770  3.072420  6.947660  7.294240  4.488490  6.332170  7.683230  4.539460  0.294790  7.414630  0.802740  8.478480  7.428020  0.861330  2.615360  7.782100  2.033520  1.948990  7.631470  3.197090  8.606060  7.432120  3.217970  2.606380  7.573510  4.585730  1.774650  7.355370  0.558710  3.964450  7.437870  3.296000  4.136260  7.439510  7.148910  4.892970  7.135980  5.830360  7.085540  7.517650  7.113340  6.290200  7.498960  7.349460  0.204500  7.303410  5.913260  8.501850  7.432830  5.828920  2.302430  7.346790 
 3.131950  5.672970  2.690140  1.850690  6.321660  0.736290  4.288710  7.939560  2.808250  4.380980  4.922040  4.794590  0.551250  8.550070  0.733660  0.650750  5.663960  2.667960  3.145870  7.115070  4.826700  3.123380  8.568410  0.743650  0.460390  7.027950  4.701700  4.408090  6.334930  0.735760  1.829330  7.747710  2.772870  1.926560  4.896560  4.700330  4.405930  1.883460  0.735760  3.121450  4.118100  0.742600  3.206130  1.081080  2.722570  0.474350  1.295040  2.821600  3.109580  2.550210  4.589700  4.394100  3.207240  2.843110  4.241840  0.315810  4.771070  1.975940  3.194130  2.819640  1.676300  0.325560  4.743550  0.474650  2.691470  4.723480  0.555570  4.098240  0.733130  1.845300  1.871980  0.735760  6.991240  6.321660  0.736290  5.691800  8.550070  0.733660  5.744530  5.605180  2.757710  5.726820  7.097440  4.700610  7.019980  7.816360  2.761890  6.912850  4.861740  4.774660  5.709610  1.094510  2.761750  7.043580  3.393770  2.695790  6.961060  0.552810  4.769850  5.622770  2.620850  4.665720  5.696120  4.098240  0.733130  6.985840  1.871980  0.735760  2.029480  4.703070  7.510690  4.551960  4.911390  7.593520  0.726430  6.987790  7.448000  2.028810  6.173450  7.384180  2.067970  0.497430  7.348570  3.071190  6.977080  7.284590  4.499610  6.369550  7.665130  4.532380  0.297160  7.394400  0.819850  8.462470  7.405770  0.866870  2.625660  7.802030  2.045360  1.947440  7.650490  3.225550  8.556200  7.406310  3.238760  2.622140  7.556980  4.567130  1.797040  7.344750  0.559390  3.974570  7.439100  3.288390  4.103170  7.451760  7.163860  4.918430  7.092280  5.856720  7.084800  7.528250  7.138590  6.295440  7.489110  7.360510  0.204290  7.277470  5.905310  8.467320  7.422780  5.828050  2.280630  7.308370 
 3.135690  5.680340  2.682040  1.850690  6.321660  0.736290  4.278980  7.952670  2.812230  4.381310  4.930110  4.798520  0.551250  8.550070  0.733660  0.661180  5.672670  2.661400  3.151210  7.119660  4.825930  3.123380  8.568410  0.743650  0.451360  7.024970  4.698610  4.408090  6.334930  0.735760  1.827560  7.744450  2.776980  1.939410  4.903610  4.696350  4.405930  1.883460  0.735760  3.121450  4.118100  0.742600  3.215320  1.073590  2.716630  0.467510  1.312640  2.829450  3.111560  2.542340  4.566330  4.395680  3.193540  2.849330  4.227780  0.308730  4.773120  1.988100  3.180470  2.825870  1.663950  0.321170  4.745130  0.468520  2.702230  4.723950  0.555570  4.098240  0.733130  1.845300  1.871980  0.735760  6.991240  6.321660  0.736290  5.691800  8.550070  0.733660  5.750160  5.608910  2.759760  5.730340  7.103010  4.697010  7.023260  7.820030  2.764210  6.909490  4.865010  4.782230  5.712520  1.091680  2.764050  7.048650  3.401040  2.690640  6.963680  0.572240  4.776630  5.618150  2.623090  4.661800  5.696120  4.098240  0.733130  6.985840  1.871980  0.735760  2.014740  4.712480  7.498470  4.522800  4.920230  7.593540  0.708280  6.980260  7.438190  1.996360  6.179440  7.384160  2.060670  0.504390  7.357020  3.097370  7.019310  7.280660  4.511170  6.399720  7.638270  4.530300  0.297640  7.373360  0.840680  8.447690  7.383370  0.862820  2.641510  7.817970  2.056630  1.937580  7.666960  3.255950  8.504020  7.377470  3.273380  2.640980  7.536550  4.541160  1.816600  7.337020  0.568220  3.986590  7.442860  3.286610  4.063880  7.469120  7.179290  4.938940  7.048820  5.881530  7.077610  7.540630  7.164150  6.304250  7.476460  7.352590  0.208540  7.249470  5.898670  8.438950  7.412050  5.829650  2.265610  7.265470 
 3.139790  5.687450  2.674200  1.850690  6.321660  0.736290  4.269730  7.965090  2.815920  4.381830  4.938140  4.802470  0.551250  8.550070  0.733660  0.671340  5.680890  2.655150  3.156370  7.123980  4.825270  3.123380  8.568410  0.743650  0.442500  7.021950  4.695690  4.408090  6.334930  0.735760  1.825770  7.741680  2.781120  1.952140  4.910580  4.692280  4.405930  1.883460  0.735760  3.121450  4.118100  0.742600  3.224020  1.066030  2.710500  0.460850  1.329710  2.836920  3.113520  2.534170  4.544360  4.397760  3.180610  2.854540  4.213910  0.301990  4.775630  1.999610  3.167550  2.831230  1.651740  0.316950  4.746840  0.462490  2.713340  4.724930  0.555570  4.098240  0.733130  1.845300  1.871980  0.735760  6.991240  6.321660  0.736290  5.691800  8.550070  0.733660  5.755680  5.612580  2.761740  5.733620  7.108840  4.693420  7.026390  7.824020  2.766390  6.906220  4.868230  4.790570  5.715500  1.088780  2.766280  7.053520  3.408750  2.685580  6.966150  0.591490  4.784210  5.613830  2.625400  4.658910  5.696120  4.098240  0.733130  6.985840  1.871980  0.735760  1.993120  4.727900  7.483120  4.490790  4.933540  7.591920  0.697080  6.971730  7.428890  1.953740  6.186490  7.385130  2.053620  0.496950  7.368430  3.143070  7.065220  7.282450  4.522240  6.419180  7.603880  4.533330  0.294960  7.351790  0.860030  8.438240  7.361110  0.852070  2.661040  7.829860  2.066840  1.922860  7.680470  3.284440  8.457700  7.346550  3.315860  2.656790  7.513920  4.512240  1.831460  7.331540  0.584970  4.000900  7.448300  3.289410  4.027070  7.490430  7.195350  4.953060  7.006110  5.902780  7.062970  7.553890  7.186510  6.315210  7.461390  7.329060  0.214810  7.219250  5.894730  8.421580  7.400180  5.832630  2.257210  7.217660 
 3.144300  5.694320  2.666630  1.850690  6.321660  0.736290  4.261040  7.976730  2.819300  4.382570  4.946120  4.806460  0.551250  8.550070  0.733660  0.681210  5.688560  2.649240  3.161300  7.127970  4.824700  3.123380  8.568410  0.743650  0.433840  7.018910  4.692930  4.408090  6.334930  0.735760  1.823950  7.739460  2.785290  1.964740  4.917470  4.688120  4.405930  1.883460  0.735760  3.121450  4.118100  0.742600  3.232170  1.058430  2.704150  0.454400  1.346240  2.843990  3.115490  2.525600  4.524040  4.400400  3.168500  2.858610  4.200230  0.295640  4.778650  2.010350  3.155460  2.835570  1.639650  0.312880  4.748670  0.456590  2.724870  4.726430  0.555570  4.098240  0.733130  1.845300  1.871980  0.735760  6.991240  6.321660  0.736290  5.691800  8.550070  0.733660  5.761110  5.616200  2.763680  5.736660  7.114930  4.689820  7.029390  7.828360  2.768410  6.903010  4.871390  4.799710  5.718560  1.085800  2.768430  7.058150  3.416930  2.680620  6.968470  0.610570  4.792670  5.609830  2.627790  4.657120  5.696120  4.098240  0.733130  6.985840  1.871980  0.735760  1.967200  4.746830  7.465480  4.457060  4.950500  7.588330  0.696690  6.965330  7.420230  1.910600  6.197150  7.386120  2.048310  0.474480  7.382100  3.199680  7.103040  7.289410  4.532610  6.425910  7.563640  4.541160  0.288820  7.329910  0.872730  8.437080  7.339200  0.838280  2.681640  7.837830  2.074850  1.906520  7.690340  3.309680  8.426820  7.315010  3.358830  2.662900  7.491100  4.487410  1.839330  7.327260  0.608550  4.018070  7.454330  3.295160  4.003100  7.514200  7.212100  4.960430  6.964830  5.918990  7.042130  7.566870  7.201430  6.325540  7.444150  7.293700  0.220820  7.186680  5.894390  8.417180  7.386990  5.835450  2.254890  7.164520 
 3.149240  5.700920  2.659370  1.850690  6.321660  0.736290  4.252970  7.987480  2.822340  4.383550  4.954080  4.810470  0.551250  8.550070  0.733660  0.690770  5.695660  2.643680  3.165980  7.131590  4.824210  3.123380  8.568410  0.743650  0.425400  7.015840  4.690340  4.408090  6.334930  0.735760  1.822120  7.737830  2.789490  1.977220  4.924270  4.683890  4.405930  1.883460  0.735760  3.121450  4.118100  0.742600  3.239700  1.050840  2.697550  0.448140  1.362180  2.850640  3.117470  2.516560  4.505630  4.403690  3.157280  2.861410  4.186770  0.289750  4.782250  2.020230  3.144290  2.838730  1.627680  0.308960  4.750620  0.450830  2.736870  4.728500  0.555570  4.098240  0.733130  1.845300  1.871980  0.735760  6.991240  6.321660  0.736290  5.691800  8.550070  0.733660  5.766440  5.619750  2.765550  5.739430  7.121320  4.686200  7.032230  7.833070  2.770250  6.899880  4.874510  4.809680  5.721730  1.082730  2.770520  7.062530  3.425650  2.675770  6.970590  0.629440  4.802120  5.606190  2.630290  4.656550  5.696120  4.098240  0.733130  6.985840  1.871980  0.735760  1.939690  4.766970  7.446640  4.422480  4.969410  7.582560  0.707980  6.965000  7.412230  1.875060  6.211310  7.386560  2.045440  0.438900  7.397340  3.260120  7.121390  7.300600  4.542920  6.419230  7.519580  4.553360  0.280040  7.307960  0.875120  8.445170  7.317890  0.824760  2.700780  7.842150  2.079300  1.890500  7.695860  3.331330  8.421110  7.284310  3.394780  2.655990  7.469960  4.474600  1.837180  7.322790  0.637140  4.038360  7.459680  3.302500  3.999880  7.538970  7.229570  4.961570  6.925760  5.929230  7.018480  7.578040  7.205770  6.332290  7.424800  7.249470  0.225230  7.151650  5.898030  8.424520  7.372610  5.837200  2.257890  7.105650 
 3.154630  5.707260  2.652440  1.850690  6.321660  0.736290  4.245570  7.997210  2.825020  4.384780  4.962000  4.814510  0.551250  8.550070  0.733660  0.699970  5.702150  2.638510  3.170380  7.134800  4.823790  3.123380  8.568410  0.743650  0.417210  7.012730  4.687920  4.408090  6.334930  0.735760  1.820280  7.736830  2.793730  1.989560  4.930990  4.679570  4.405930  1.883460  0.735760  3.121450  4.118100  0.742600  3.246570  1.043320  2.690670  0.442070  1.377510  2.856870  3.119500  2.506950  4.489380  4.407700  3.147020  2.862800  4.173540  0.284380  4.786460  2.029130  3.134120  2.840550  1.615810  0.305160  4.752680  0.445240  2.749390  4.731140  0.555570  4.098240  0.733130  1.845300  1.871980  0.735760  6.991240  6.321660  0.736290  5.691800  8.550070  0.733660  5.771690  5.623250  2.767380  5.741910  7.128030  4.682530  7.034940  7.838190  2.771890  6.896820  4.877570  4.820510  5.725000  1.079560  2.772540  7.066640  3.434950  2.671060  6.972490  0.648130  4.812620  5.602940  2.632910  4.657300  5.696120  4.098240  0.733130  6.985840  1.871980  0.735760  1.913610  4.786930  7.427840  4.387820  4.987700  7.574580  0.727160  6.974270  7.404760  1.854090  6.227030  7.386220  2.045450  0.394110  7.413450  3.318980  7.115720  7.314850  4.554420  6.400070  7.473950  4.569580  0.270460  7.286140  0.865330  8.461460  7.297500  0.814070  2.716520  7.843030  2.079240  1.875660  7.696380  3.348570  8.443650  7.255540  3.417110  2.638680  7.452100  4.480370  1.822310  7.316760  0.668170  4.061240  7.463170  3.310560  4.018680  7.563280  7.247760  4.957630  6.889680  5.933270  6.996140  7.585780  7.199340  6.333610  7.403230  7.198770  0.227870  7.114220  5.905320  8.440050  7.357420  5.837890  2.265210  7.040770 
 3.160500  5.713320  2.645850  1.850690  6.321660  0.736290  4.238930  8.005800  2.827320  4.386300  4.969890  4.818530  0.551250  8.550070  0.733660  0.708810  5.707980  2.633740  3.174480  7.137550  4.823450  3.123380  8.568410  0.743650  0.409270  7.009560  4.685700  4.408090  6.334930  0.735760  1.818430  7.736490  2.798000  2.001780  4.937620  4.675150  4.405930  1.883460  0.735760  3.121450  4.118100  0.742600  3.252710  1.035950  2.683490  0.436200  1.392210  2.862660  3.121590  2.496710  4.475550  4.412500  3.137770  2.862700  4.160540  0.279570  4.791330  2.036960  3.125040  2.840880  1.604030  0.301480  4.754840  0.439860  2.762480  4.734380  0.555570  4.098240  0.733130  1.845300  1.871980  0.735760  6.991240  6.321660  0.736290  5.691800  8.550070  0.733660  5.776860  5.626680  2.769160  5.744070  7.135070  4.678810  7.037490  7.843730  2.773300  6.893830  4.880590  4.832180  5.728410  1.076300  2.774510  7.070470  3.444860  2.666510  6.974130  0.666610  4.824220  5.600090  2.635690  4.659470  5.696120  4.098240  0.733130  6.985840  1.871980  0.735760  1.892600  4.806550  7.410290  4.353980  5.002090  7.564540  0.747060  6.995280  7.397390  1.853310  6.242160  7.385150  2.048600  0.345500  7.429680  3.371400  7.092440  7.330350  4.568780  6.371050  7.429000  4.589410  0.262670  7.264690  0.842990  8.483480  7.278330  0.807930  2.727600  7.840520  2.074510  1.862590  7.691490  3.360170  8.486010  7.229800  3.422250  2.616530  7.438870  4.507300  1.794620  7.308170  0.698320  4.084960  7.463810  3.318640  4.054570  7.585420  7.266600  4.950000  6.857260  5.931740  6.978420  7.588660  7.184950  6.329210  7.379280  7.144570  0.229690  7.074540  5.914890  8.459230  7.341950  5.838130  2.275670  6.969720 
 3.166870  5.719110  2.639650  1.850690  6.321660  0.736290  4.233120  8.013130  2.829220  4.388130  4.977760  4.822510  0.551250  8.550070  0.733660  0.717240  5.713120  2.629400  3.178250  7.139780  4.823190  3.123380  8.568410  0.743650  0.401630  7.006320  4.683700  4.408090  6.334930  0.735760  1.816580  7.736850  2.802310  2.013850  4.944160  4.670600  4.405930  1.883460  0.735760  3.121450  4.118100  0.742600  3.258050  1.028810  2.675980  0.430520  1.406250  2.868010  3.123780  2.485770  4.464360  4.418160  3.129590  2.860990  4.147760  0.275390  4.796870  2.043640  3.117140  2.839590  1.592360  0.297900  4.757070  0.434720  2.776190  4.738210  0.555570  4.098240  0.733130  1.845300  1.871980  0.735760  6.991240  6.321660  0.736290  5.691800  8.550070  0.733660  5.781970  5.630060  2.770900  5.745900  7.142470  4.675010  7.039900  7.849720  2.774470  6.890900  4.883560  4.844670  5.731950  1.072930  2.776440  7.073990  3.455430  2.662150  6.975440  0.684890  4.836950  5.597680  2.638660  4.663150  5.696120  4.098240  0.733130  6.985840  1.871980  0.735760  1.880890  4.826850  7.395120  4.322610  5.009520  7.552750  0.761330  7.027670  7.389460  1.875090  6.256170  7.383440  2.054310  0.299230  7.445260  3.412190  7.062690  7.344710  4.587750  6.336230  7.386650  4.612090  0.259310  7.243940  0.809170  8.508120  7.260620  0.807340  2.733630  7.834490  2.065870  1.851960  7.681050  3.365640  8.534110  7.208430  3.411280  2.593070  7.431060  4.552540  1.758030  7.296570  0.723670  4.106600  7.460970  3.325170  4.099470  7.603720  7.285990  4.940040  6.829040  5.926120  6.967060  7.585570  7.166760  6.319900  7.352960  7.091290  0.232660  7.032680  5.923920  8.477030  7.326970  5.838660  2.287930  6.892570 