 3.109570  5.597410  2.771860  1.850690  6.321660  0.736290  4.390820  7.802660  2.764760  4.383800  4.845560  4.760630  0.551250  8.550070  0.733660  0.548550  5.569360  2.737680  3.093540  7.066750  4.838200  3.123380  8.568410  0.743650  0.547240  7.054550  4.737490  4.408090  6.334930  0.735760  1.844220  7.792510  2.737680  1.806050  4.829260  4.733810  4.405930  1.883460  0.735760  3.121450  4.118100  0.742600  3.108800  1.144250  2.772650  0.543700  1.118880  2.738470  3.090450  2.616890  4.833470  4.391900  3.354140  2.761080  4.376400  0.388130  4.763780  1.849380  3.339800  2.744250  1.794020  0.371830  4.733810  0.532510  2.602370  4.736960  0.555570  4.098240  0.733130  1.845300  1.871980  0.735760  6.991240  6.321660  0.736290  5.691800  8.550070  0.733660  5.689100  5.569360  2.737680  5.687870  7.054550  4.737490  6.984760  7.792510  2.737680  6.946670  4.829260  4.733810  5.684240  1.118880  2.738470  6.990010  3.339800  2.744250  6.934570  0.371830  4.733810  5.673140  2.602370  4.736960  5.696120  4.098240  0.733130  6.985840  1.871980  0.735760  1.910610  4.783590  7.460170  4.585980  4.781360  7.546690  0.660590  7.010920  7.529860  1.893870  6.258180  7.479630  1.895800  0.341380  7.455440  3.381150  7.047610  7.523020  4.575340  6.265210  7.550370  4.579890  0.330690  7.547220  0.665140  8.491830  7.531170  0.691590  2.560170  7.514870  1.937210  1.814100  7.447030  3.386780  8.449810  7.529070  3.404900  2.593910  7.523020  4.598780  1.813120  7.547740  0.677560  4.036090  7.522230  3.398420  3.993530  7.529600  7.051160  4.783590  7.460170  5.801220  7.010920  7.529860  7.034420  6.258180  7.479630  7.036430  0.341380  7.455440  5.805690  8.491830  7.531170  5.832140  2.560170  7.514870  7.077760  1.814100  7.447030 
 3.962800  5.527460 26.220160  2.044150  6.991160  0.458940  5.098240  6.181000  4.299200  6.474940  2.594320  5.125170  0.722050  8.684550  1.356470  2.143240  7.550430  2.830830  1.919320  6.175080  4.677670  1.893710  4.348670  0.017970  7.193050  6.314220  5.921850  5.873070  1.410290  0.606700  5.499770  0.874210  3.032890  0.855300  2.217460  5.103240  4.194430  7.827190 25.492980  2.780370  0.798470  0.314050  4.224900  3.284790  3.367470  3.160960  0.555150  2.868210  1.755370  3.550620  3.313510  3.152240  4.085940  5.515590  1.455060  8.643080  5.600420  3.959250  2.890540  1.150920  0.116110  0.851290  3.136840  6.509810  0.310300  5.073070  1.060290  5.527990  2.095560  0.558440  8.602490 25.311910  6.969600  4.011540  0.632200  6.697980  6.600390  0.393600  4.747070  7.554390  1.641880  4.463730  8.325880  4.398800  7.508270  7.240540  3.337860  3.753330  6.651140  6.244360  6.661530  3.124600  2.733440  7.377710  4.709680  4.099920  3.394810  1.590820  4.861450  3.264940  5.374410  2.864720  5.540310  5.073890  1.961480  0.456300  1.927640  0.610630  7.410570  7.202650  8.050480  2.381760  7.425240  7.288660  6.130720  0.610810  7.992140  7.529870  8.716300  7.960130  7.293840  2.820760  7.930130  1.022370  0.579380  7.888130  2.245830  8.767140  7.533080  2.096440  2.708970  7.827170  6.096120  1.967840  7.942450  6.067460  4.898500  7.822990  7.402720  4.275480  7.720970  0.852800  2.046720  7.770720  1.092070  5.073080  7.435390  2.260940  4.173220  7.588940  6.019130  6.638130  7.826240  1.024240  6.538950  7.751350  4.904520  7.460320  7.524770  3.564280  0.456850  7.693970  4.909710  8.850800  7.949590  4.825220  2.638260  8.044040  3.590690  1.864620  7.846350  3.625650  4.705440  7.248810  4.711010  4.006200  7.934780 
