-320.73401143
-320.85863194
-320.50888554
-320.07435990
-319.71497450
-319.31141045
-318.75622518
-318.17713597
-317.90012985
-318.13976760
-318.45303822
-318.24633093
-317.58913259
-317.13628840
-317.22490211
-317.41499041
-317.22439235
-316.63683867
-316.01588188
-315.69957790
-315.56715858
-315.16988478
-314.40601365
