 3.109570  5.597410  2.771860  1.850690  6.321660  0.736290  4.390820  7.802660  2.764760  4.383800  4.845560  4.760630  0.551250  8.550070  0.733660  0.548550  5.569360  2.737680  3.093540  7.066750  4.838200  3.123380  8.568410  0.743650  0.547240  7.054550  4.737490  4.408090  6.334930  0.735760  1.844220  7.792510  2.737680  1.806050  4.829260  4.733810  4.405930  1.883460  0.735760  3.121450  4.118100  0.742600  3.108800  1.144250  2.772650  0.543700  1.118880  2.738470  3.090450  2.616890  4.833470  4.391900  3.354140  2.761080  4.376400  0.388130  4.763780  1.849380  3.339800  2.744250  1.794020  0.371830  4.733810  0.532510  2.602370  4.736960  0.555570  4.098240  0.733130  1.845300  1.871980  0.735760  6.991240  6.321660  0.736290  5.691800  8.550070  0.733660  5.689100  5.569360  2.737680  5.687870  7.054550  4.737490  6.984760  7.792510  2.737680  6.946670  4.829260  4.733810  5.684240  1.118880  2.738470  6.990010  3.339800  2.744250  6.934570  0.371830  4.733810  5.673140  2.602370  4.736960  5.696120  4.098240  0.733130  6.985840  1.871980  0.735760  1.910610  4.783590  7.460170  4.585980  4.781360  7.546690  0.660590  7.010920  7.529860  1.893870  6.258180  7.479630  1.895800  0.341380  7.455440  3.381150  7.047610  7.523020  4.575340  6.265210  7.550370  4.579890  0.330690  7.547220  0.665140  8.491830  7.531170  0.691590  2.560170  7.514870  1.937210  1.814100  7.447030  3.386780  8.449810  7.529070  3.404900  2.593910  7.523020  4.598780  1.813120  7.547740  0.677560  4.036090  7.522230  3.398420  3.993530  7.529600  7.051160  4.783590  7.460170  5.801220  7.010920  7.529860  7.034420  6.258180  7.479630  7.036430  0.341380  7.455440  5.805690  8.491830  7.531170  5.832140  2.560170  7.514870  7.077760  1.814100  7.447030 
 3.110910  5.605500  2.765110  1.864090  6.313900  0.736290  4.378720  7.817630  2.772160  4.382670  4.853570  4.766330  0.556250  8.543130  0.730030  0.559440  5.579800  2.732080  3.098710  7.071630  4.839150  3.110120  8.559530  0.749140  0.537220  7.051190  4.735550  4.400050  6.307760  0.737250  1.842210  7.786410  2.743680  1.818630  4.836130  4.732530  4.413150  1.874030  0.727860  3.129390  4.113500  0.741900  3.119410  1.137260  2.769810  0.535390  1.138130  2.750450  3.092150  2.609300  4.808690  4.391170  3.336770  2.773350  4.361160  0.379550  4.766620  1.863210  3.322570  2.755340  1.780450  0.365950  4.736740  0.525860  2.611240  4.736470  0.556260  4.086360  0.731920  1.837110  1.882840  0.726040  6.971050  6.334400  0.728510  5.696750  8.558300  0.719140  5.694890  5.572830  2.742370  5.691930  7.058270  4.735560  6.988430  7.794080  2.742830  6.942430  4.832410  4.738690  5.686500  1.115740  2.743560  6.995770  3.344560  2.741490  6.936960  0.390860  4.738010  5.666720  2.603760  4.729090  5.691160  4.113890  0.750780  6.990000  1.856190  0.740930  1.923910  4.777730  7.477460  4.595610  4.802650  7.558380  0.701950  7.003930  7.526350  1.886930  6.225060  7.465050  1.898170  0.358670  7.433210  3.379270  7.018530  7.491690  4.538960  6.251070  7.584310  4.589620  0.323400  7.535070  0.706150  8.495830  7.530040  0.689240  2.570340  7.556430  1.955350  1.822570  7.469310  3.352030  8.506190  7.529610  3.381200  2.600260  7.544860  4.590250  1.779320  7.520250  0.672130  4.016340  7.509980  3.398480  4.029390  7.510780  7.059280  4.771200  7.428170  5.782330  7.021040  7.523520  7.030290  6.270020  7.488460  7.052360  0.325250  7.447380  5.837340  8.527950  7.519100  5.835280  2.530210  7.510230  7.087870  1.819170  7.425320 
 3.971660  5.545500 26.209390  2.028900  7.002680  0.442470  5.148190  6.156420  4.279270  6.481830  2.592740  5.104360  0.742330  8.718080  1.356710  2.161400  7.547330  2.828600  1.884880  6.186530  4.724470  1.872590  4.321760  0.006760  7.184080  6.308920  5.901400  5.849260  1.461430  0.609350  5.510450  0.833290  2.997770  0.861280  2.249790  5.113730  4.234670  7.862000 25.563280  2.787170  0.832720  0.321210  4.211130  3.284820  3.365360  3.176700  0.546560  2.874640  1.722710  3.504910  3.338350  3.153630  4.079450  5.527450  1.487030  8.633780  5.563690  3.945870  2.904090  1.153130  0.131090  0.855750  3.127900  6.477930  0.325470  5.095400  1.069590  5.526470  2.099110  0.558830  8.605740 25.311840  6.966100  3.994050  0.652440  6.688010  6.626860  0.378410  4.770970  7.531530  1.635130  4.436800  8.286270  4.397990  7.493080  7.245520  3.340350  3.796100  6.606090  6.237360  6.636590  3.059190  2.730450  7.339020  4.640090  4.053850  3.363420  1.604480  4.892240  3.290970  5.367550  2.863040  5.536510  5.067800  1.934210  0.483960  2.005070  0.624160  7.464260  7.333210  8.039090  2.279480  7.432020  7.216510  6.170390  0.612700  7.958760  7.511000  8.785110  8.021300  7.329350  2.835820  7.831610  0.983040  0.533770  7.964770  2.248000  8.779700  7.647850  2.152090  2.719000  7.843370  6.018950  2.001470  8.022380  6.142580  4.911330  7.855960  7.462400  4.366580  7.650020  0.857090  2.088670  7.668740  1.043560  5.062520  7.410780  2.249560  4.164800  7.608430  6.068750  6.569060  7.887340  1.064980  6.566470  7.709950  4.973800  7.476640  7.600030  3.503510  0.493830  7.631290  4.839120  8.871350  7.908220  4.749000  2.556320  8.095100  3.468970  1.903690  7.869060  3.676270  4.749120  7.319770  4.736840  3.934760  7.899180 
 3.968370  5.539480 26.212550  2.033720  6.998980  0.448570  5.130750  6.165460  4.286190  6.481180  2.592540  5.111510  0.735790  8.707420  1.357290  2.155240  7.548910  2.829150  1.896840  6.182810  4.708530  1.879900  4.330980  0.010040  7.187180  6.310450  5.908560  5.857460  1.444470  0.608320  5.506880  0.846620  3.010250  0.857800  2.239390  5.110110  4.221140  7.850090 25.539190  2.784830  0.821300  0.318660  4.215290  3.284950  3.365370  3.171640  0.548290  2.873420  1.733690  3.520540  3.330140  3.153160  4.081590  5.524170  1.476110  8.637000  5.576710  3.950570  2.899420  1.153000  0.125680  0.853570  3.129920  6.488210  0.321070  5.087550  1.067210  5.527290  2.098270  0.558640  8.604600 25.311490  6.966730  3.999900  0.646490  6.691140  6.617830  0.383440  4.763020  7.539150  1.637230  4.446460  8.300000  4.397690  7.498650  7.243870  3.339200  3.781770  6.621760  6.239000  6.645080  3.082260  2.731860  7.351760  4.662640  4.068880  3.374030  1.599650  4.881400  3.281910  5.369560  2.863770  5.538380  5.069240  1.942880  0.474120  1.978680  0.619540  7.444270  7.290760  8.047980  2.328750  7.440460  7.238120  6.152390  0.619540  7.967780  7.532410  8.766590  7.998900  7.313450  2.833390  7.869680  0.997380  0.539990  7.943510  2.246770  8.777060  7.607930  2.123240  2.713130  7.841460  6.034540  1.978620  7.994480  6.119130  4.901850  7.845390  7.448490  4.338970  7.670460  0.853130  2.080030  7.695570  1.065820  5.069020  7.409890  2.249620  4.164220  7.606670  6.045680  6.598450  7.867160  1.049760  6.557160  7.730790  4.946370  7.474450  7.572110  3.516140  0.461370  7.646170  4.865090  8.879910  7.930070  4.781540  2.586810  8.079890  3.518470  1.887500  7.860850  3.664490  4.740510  7.288950  4.719220  3.936680  7.918820 
 3.965410  5.533470 26.216140  2.038800  6.995130  0.454060  5.114110  6.173650  4.292840  6.478880  2.593070  5.118460  0.729040  8.696250  1.357200  2.149170  7.549920  2.829900  1.908330  6.179000  4.692910  1.886950  4.339960  0.013770  7.190170  6.312220  5.915370  5.865410  1.427430  0.607430  5.503320  0.860230  3.021960  0.855810  2.228600  5.106650  4.207730  7.838500 25.515750  2.782560  0.809890  0.316270  4.219870  3.284930  3.366080  3.166390  0.551170  2.871290  1.744590  3.535800  3.321840  3.152700  4.083770  5.520250  1.465460  8.640100  5.588960  3.955030  2.894910  1.152260  0.120680  0.852080  3.132930  6.498820  0.316000  5.080100  1.064120  5.527800  2.097090  0.558510  8.603520 25.311520  6.967890  4.005740  0.639740  6.694470  6.609010  0.388500  4.755050  7.546770  1.639490  4.455450  8.313210  4.397960  7.503720  7.242210  3.338370  3.767510  6.636820  6.241400  6.653380  3.104050  2.732830  7.364660  4.685860  4.084250  3.384490  1.595080  4.871120  3.273210  5.371860  2.864350  5.539640  5.071270  1.951980  0.464910  1.952860  0.615040  7.426050  7.245480  8.051930  2.363530  7.438600  7.262350  6.137700  0.619860  7.979110  7.538070  8.742960  7.978310  7.300970  2.828890  7.902760  1.011910  0.556900  7.917620  2.245000  8.771770  7.569020  2.103980  2.709590  7.835890  6.061760  1.965820  7.967270  6.093850  4.897780  7.834280  7.428290  4.307590  7.694340  0.851720  2.065330  7.729970  1.082850  5.072860  7.418020  2.253840  4.167480  7.600100  6.029090  6.622640  7.846700  1.035790  6.548540  7.744580  4.922620  7.468450  7.546690  3.536700  0.448910  7.667390  4.890110  8.873240  7.944080  4.806780  2.615570  8.062870  3.559600  1.874150  7.853250  3.647380  4.725540  7.265010  4.710210  3.960840  7.930950 
 3.962800  5.527460 26.220160  2.044150  6.991160  0.458940  5.098240  6.181000  4.299200  6.474940  2.594320  5.125170  0.722050  8.684550  1.356470  2.143240  7.550430  2.830830  1.919320  6.175080  4.677670  1.893710  4.348670  0.017970  7.193050  6.314220  5.921850  5.873070  1.410290  0.606700  5.499770  0.874210  3.032890  0.855300  2.217460  5.103240  4.194430  7.827190 25.492980  2.780370  0.798470  0.314050  4.224900  3.284790  3.367470  3.160960  0.555150  2.868210  1.755370  3.550620  3.313510  3.152240  4.085940  5.515590  1.455060  8.643080  5.600420  3.959250  2.890540  1.150920  0.116110  0.851290  3.136840  6.509810  0.310300  5.073070  1.060290  5.527990  2.095560  0.558440  8.602490 25.311910  6.969600  4.011540  0.632200  6.697980  6.600390  0.393600  4.747070  7.554390  1.641880  4.463730  8.325880  4.398800  7.508270  7.240540  3.337860  3.753330  6.651140  6.244360  6.661530  3.124600  2.733440  7.377710  4.709680  4.099920  3.394810  1.590820  4.861450  3.264940  5.374410  2.864720  5.540310  5.073890  1.961480  0.456300  1.927640  0.610630  7.410570  7.202650  8.050480  2.381760  7.425240  7.288660  6.130720  0.610810  7.992140  7.529870  8.716300  7.960130  7.293840  2.820760  7.930130  1.022370  0.579380  7.888130  2.245830  8.767140  7.533080  2.096440  2.708970  7.827170  6.096120  1.967840  7.942450  6.067460  4.898500  7.822990  7.402720  4.275480  7.720970  0.852800  2.046720  7.770720  1.092070  5.073080  7.435390  2.260940  4.173220  7.588940  6.019130  6.638130  7.826240  1.024240  6.538950  7.751350  4.904520  7.460320  7.524770  3.564280  0.456850  7.693970  4.909710  8.850800  7.949590  4.825220  2.638260  8.044040  3.590690  1.864620  7.846350  3.625650  4.705440  7.248810  4.711010  4.006200  7.934780 
 3.960580  5.521460 26.224610  2.049790  6.987060  0.463210  5.083110  6.187520  4.305310  6.469440  2.596310  5.131640  0.714780  8.672290  1.355170  2.137460  7.550480  2.831930  1.929800  6.171060  4.662850  1.900160  4.357120  0.022610  7.195850  6.316450  5.927990  5.880390  1.393030  0.606110  5.496220  0.888630  3.043000  0.856230  2.206000  5.099810  4.181210  7.816140 25.470850  2.778240  0.787020  0.311990  4.230360  3.284550  3.369510  3.155330  0.560200  2.864190  1.765970  3.564960  3.305190  3.151760  4.088060  5.510070  1.444860  8.645950  5.611080  3.963280  2.886280  1.148980  0.111980  0.851160  3.141560  6.521220  0.303980  5.066480  1.055700  5.527880  2.093660  0.558440  8.601510 25.312680  6.971840  4.017270  0.623900  6.701660  6.591980  0.398750  4.739070  7.562020  1.644360  4.471300  8.337990  4.400230  7.512300  7.238860  3.337670  3.739180  6.664600  6.247670  6.669600  3.143980  2.733770  7.390890  4.734010  4.115860  3.404990  1.586890  4.852410  3.257170  5.377220  2.864850  5.540400  5.077110  1.971360  0.448290  1.903080  0.606300  7.398360  7.166610  8.043510  2.382420  7.401190  7.316940  6.134280  0.592780  8.006080  7.510840  8.689380  7.944600  7.293880  2.808420  7.951620  1.025540  0.600940  7.856230  2.252080  8.765840  7.501920  2.100910  2.711190  7.815960  6.131970  1.983860  7.921400  6.040550  4.903420  7.811820  7.373060  4.245480  7.749670  0.857180  2.027650  7.816280  1.091980  5.069170  7.461690  2.268970  4.179440  7.574020  6.015510  6.642070  7.805910  1.016050  6.526900  7.751520  4.893470  7.450810  7.506950  3.595950  0.481490  7.724030  4.921190  8.814890  7.946840  4.838150  2.655130  8.023180  3.611670  1.861240  7.840440  3.600560  4.682690  7.240300  4.722340  4.067090  7.930400 
 3.958780  5.515490 26.229480  2.055720  6.982840  0.466860  5.068710  6.193220  4.311170  6.462430  2.598990  5.137830  0.707220  8.659470  1.353370  2.131860  7.550150  2.833170  1.939750  6.166950  4.648510  1.906300  4.365300  0.027700  7.198590  6.318920  5.933800  5.887330  1.375600  0.605680  5.492680  0.903570  3.052300  0.858570  2.194250  5.096270  4.168060  7.805310 25.449370  2.776190  0.775530  0.310090  4.236270  3.284240  3.372150  3.149490  0.566250  2.859220  1.776370  3.578770  3.296920  3.151260  4.090120  5.503590  1.434850  8.648730  5.620920  3.967120  2.882120  1.146470  0.108320  0.851680  3.146990  6.533060  0.297060  5.060380  1.050340  5.527480  2.091370  0.558510  8.600580 25.313790  6.974590  4.022940  0.614890  6.705510  6.583780  0.403970  4.731050  7.569650  1.646920  4.478150  8.349510  4.402240  7.515780  7.237210  3.337840  3.724970  6.677100  6.251140  6.677640  3.162220  2.733900  7.404190  4.758760  4.132030  3.415030  1.583310  4.844040  3.249990  5.380280  2.864670  5.539920  5.080930  1.981600  0.440860  1.879230  0.602030  7.389600  7.140330  8.031140  2.365380  7.369140  7.347150  6.148930  0.568390  8.019880  7.483850  8.664850  7.931770  7.302960  2.792940  7.967630  1.020510  0.615150  7.823010  2.265030  8.768800  7.477160  2.116280  2.715380  7.803140  6.162940  2.007760  7.905210  6.014190  4.912280  7.801040  7.341140  4.220150  7.779710  0.866130  2.012350  7.864870  1.082010  5.060790  7.496180  2.275160  4.183830  7.556860  6.017710  6.632670  7.785760  1.011880  6.511640  7.745820  4.890130  7.439650  7.493340  3.628060  0.515770  7.755080  4.924500  8.770730  7.936940  4.847260  2.669250  8.000220  3.623450  1.867650  7.835920  3.574380  4.660640  7.238530  4.743520  4.135390  7.918320 
 3.957440  5.509540 26.234780  2.061940  6.978520  0.469890  5.055000  6.198120  4.316800  6.454000  2.602340  5.143750  0.699330  8.646080  1.351150  2.126480  7.549500  2.834550  1.949150  6.162740  4.634700  1.912090  4.373200  0.033210  7.201260  6.321640  5.939240  5.893840  1.358010  0.605420  5.489140  0.919070  3.060750  0.862230  2.182270  5.092560  4.154970  7.794700 25.428520  2.774210  0.763980  0.308330  4.242640  3.283900  3.375360  3.143450  0.573240  2.853280  1.786500  3.592000  3.288740  3.150740  4.092110  5.496110  1.425040  8.651400  5.629970  3.970810  2.878050  1.143410  0.105160  0.852800  3.153030  6.545350  0.289580  5.054790  1.044190  5.526810  2.088680  0.558660  8.599700 25.315240  6.977820  4.028510  0.605210  6.709520  6.575800  0.409260  4.723020  7.577290  1.649540  4.484240  8.360420  4.404830  7.518710  7.235590  3.338360  3.710580  6.688610  6.254620  6.685690  3.179390  2.733880  7.417580  4.783800  4.148380  3.424910  1.580130  4.836360  3.243470  5.383570  2.864140  5.538900  5.085330  1.992150  0.434020  1.856130  0.597780  7.384150  7.125200  8.013610  2.331710  7.332810  7.378960  6.172730  0.540250  8.032270  7.451730  8.644740  7.921510  7.322550  2.776910  7.979060  1.008390  0.617370  7.789400  2.284010  8.775080  7.460190  2.140630  2.720100  7.789910  6.183090  2.031450  7.894470  5.990690  4.925570  7.790870  7.309450  4.201550  7.810340  0.880840  2.004270  7.914540  1.062370  5.047520  7.537680  2.276130  4.184080  7.539490  6.025150  6.609400  7.765800  1.011900  6.493400  7.735350  4.894310  7.425370  7.483400  3.657330  0.550960  7.784560  4.921780  8.725630  7.921910  4.854680  2.684140  7.975330  3.627330  1.887780  7.833080  3.550520  4.642840  7.241920  4.771370  4.202810  7.899230 
 3.956600  5.503640 26.240490  2.068450  6.974090  0.472300  5.041990  6.202210  4.322220  6.444260  2.606330  5.149370  0.691100  8.632100  1.348580  2.121350  7.548600  2.836030  1.957970  6.158450  4.621520  1.917520  4.380800  0.039150  7.203890  6.324660  5.944270  5.899870  1.340230  0.605320  5.485610  0.935180  3.068370  0.867120  2.170110  5.088630  4.141920  7.784290 25.408320  2.772300  0.752370  0.306730  4.249460  3.283540  3.379100  3.137190  0.581120  2.846390  1.796310  3.604570  3.280690  3.150200  4.094030  5.487650  1.415440  8.653990  5.638240  3.974350  2.874050  1.139830  0.102530  0.854510  3.159560  6.558080  0.281570  5.049730  1.037230  5.525860  2.085580  0.558890  8.598860 25.317000  6.981510  4.033990  0.594920  6.713690  6.568050  0.414630  4.714980  7.584920  1.652190  4.489570  8.370680  4.407980  7.521060  7.234030  3.339250  3.695860  6.699120  6.258080  6.693800  3.195530  2.733800  7.431050  4.809040  4.164830  3.434630  1.577350  4.829370  3.237690  5.387080  2.863200  5.537360  5.090320  2.002980  0.427790  1.833830  0.593560  7.381640  7.120880  7.991230  2.283990  7.295870  7.411430  6.201490  0.510460  8.042090  7.417880  8.630140  7.913570  7.352260  2.763320  7.987100  0.991420  0.606420  7.756270  2.306600  8.782560  7.452000  2.171730  2.723710  7.777660  6.189100  2.048360  7.889180  5.974160  4.944660  7.781510  7.281090  4.190940  7.840790  0.902160  2.004230  7.963110  1.033910  5.028760  7.584660  2.268730  4.178620  7.524090  6.037310  6.573230  7.746120  1.015460  6.473390  7.721630  4.905130  7.405730  7.476100  3.681320  0.579670  7.810330  4.916100  8.687220  7.904360  4.862480  2.702380  7.948870  3.624690  1.923520  7.831890  3.532770  4.632450  7.248630  4.799690  4.262020  7.873980 
 3.956290  5.497790 26.246610  2.075250  6.969590  0.474100  5.029640  6.205520  4.327440  6.433330  2.610910  5.154700  0.682490  8.617560  1.345750  2.116500  7.547540  2.837580  1.966200  6.154090  4.609020  1.922560  4.388080  0.045500  7.206460  6.327990  5.948840  5.905370  1.322260  0.605390  5.482100  0.951910  3.075150  0.873140  2.157800  5.084460  4.128910  7.774060 25.388770  2.770480  0.740690  0.305260  4.256750  3.283210  3.383320  3.130720  0.589820  2.838560  1.805760  3.616440  3.272810  3.149650  4.095900  5.478270  1.406090  8.656520  5.645770  3.977770  2.870120  1.135760  0.100450  0.856760  3.166460  6.571240  0.273080  5.045230  1.029460  5.524680  2.082060  0.559210  8.598060 25.319060  6.985620  4.039360  0.584060  6.718000  6.560550  0.420080  4.706930  7.592550  1.654870  4.494130  8.380280  4.411680  7.522820  7.232550  3.340520  3.680650  6.708680  6.261510  6.702010  3.210670  2.733690  7.444570  4.834330  4.181310  3.444160  1.574990  4.823120  3.232730  5.390810  2.861790  5.535340  5.095860  2.014030  0.422180  1.812410  0.589340  7.381520  7.125430  7.964430  2.226670  7.261350  7.443100  6.229080  0.481550  8.048630  7.386970  8.620760  7.907450  7.388380  2.754120  7.992860  0.972360  0.584850  7.724820  2.329340  8.788730  7.453120  2.207230  2.724750  7.767760  6.182170  2.055260  7.889010  5.969850  4.971150  7.773180  7.259570  4.188680  7.870310  0.930330  2.009890  8.008170  0.998010  5.003950  7.635400  2.251580  4.167260  7.512410  6.053690  6.526920  7.726950  1.020670  6.453260  7.706510  4.921240  7.378960  7.470360  3.698340  0.598690  7.830930  4.910400  8.661090  7.886770  4.872040  2.725240  7.921320  3.616980  1.972570  7.832040  3.523360  4.631570  7.256920  4.820740  4.306960  7.843540 
 3.956550  5.492020 26.253130  2.082340  6.965010  0.475290  5.017950  6.208060  4.332450  6.421320  2.616020  5.159740  0.673500  8.602460  1.342740  2.111950  7.546400  2.839190  1.973810  6.149640  4.597300  1.927180  4.395010  0.052230  7.209000  6.331710  5.952880  5.910290  1.304070  0.605630  5.478600  0.969260  3.081120  0.880160  2.145420  5.080040  4.115940  7.764020 25.369880  2.768730  0.728950  0.303940  4.264480  3.282920  3.387960  3.124060  0.599280  2.829810  1.814800  3.627530  3.265140  3.149090  4.097760  5.468100  1.397020  8.659020  5.652620  3.981070  2.866250  1.131240  0.098940  0.859520  3.173600  6.584800  0.264140  5.041280  1.020890  5.523260  2.078100  0.559620  8.597310 25.321380  6.990100  4.044610  0.572720  6.722430  6.553300  0.425630  4.698880  7.600170  1.657560  4.497910  8.389190  4.415890  7.523980  7.231180  3.342170  3.664830  6.717330  6.264970  6.710360  3.224870  2.733620  7.458130  4.859540  4.197720  3.453490  1.573070  4.817610  3.228660  5.394750  2.859850  5.532860  5.101940  2.025260  0.417210  1.791910  0.585120  7.383130  7.135700  7.933780  2.165970  7.231740  7.472270  6.248040  0.457150  8.051770  7.364800  8.614710  7.902330  7.424740  2.749840  7.997150  0.954220  0.557330  7.696550  2.348550  8.791410  7.463450  2.244680  2.722400  7.761350  6.167490  2.051990  7.893420  5.981120  5.004450  7.766240  7.248310  4.194290  7.898210  0.964500  2.017210  8.047140  0.956510  4.973030  7.688060  2.226120  4.151440  7.505380  6.073860  6.475370  7.708750  1.024190  6.434030  7.692080  4.941080  7.345290  7.465550  3.707180  0.608930  7.845440  4.907070  8.648870  7.870690  4.883460  2.752900  7.893230  3.606310  2.028790  7.833130  3.521410  4.640970  7.265480  4.829050  4.333900  7.808890 
 3.957430  5.486340 26.260040  2.089710  6.960380  0.475880  5.006890  6.209840  4.337280  6.408380  2.621610  5.164490  0.664080  8.586820  1.339640  2.107750  7.545240  2.840830  1.980770  6.145120  4.586430  1.931370  4.401590  0.059340  7.211490  6.335850  5.956320  5.914590  1.285670  0.606050  5.475130  0.987230  3.086280  0.888080  2.133010  5.075390  4.103000  7.754140 25.351650  2.767060  0.717140  0.302740  4.272660  3.282710  3.393000  3.117200  0.609450  2.820170  1.823390  3.637770  3.257700  3.148480  4.099620  5.457280  1.388250  8.661540  5.658840  3.984280  2.862450  1.126300  0.098030  0.862750  3.180850  6.598720  0.254790  5.037890  1.011520  5.521620  2.073700  0.560120  8.596580 25.323950  6.994930  4.049740  0.560960  6.726990  6.546320  0.431270  4.690830  7.607770  1.660250  4.500900  8.397400  4.420580  7.524520  7.229940  3.344220  3.648310  6.725100  6.268560  6.718880  3.238170  2.733620  7.471690  4.884540  4.213980  3.462610  1.571590  4.812850  3.225540  5.398890  2.857310  5.529980  5.108530  2.036620  0.412900  1.772370  0.580900  7.385900  7.148020  7.900110  2.109370  7.209470  7.497380  6.251420  0.441370  8.051800  7.356710  8.609490  7.897200  7.455520  2.749920  8.000630  0.939960  0.528560  7.673040  2.361190  8.789090  7.482320  2.281080  2.716940  7.759290  6.151520  2.040090  7.901770  6.006160  5.038980  7.761230  7.249880  4.206650  7.923950  1.002430  2.022490  8.077860  0.911890  4.936930  7.740750  2.195960  4.133800  7.503230  6.097360  6.426140  7.692200  1.021370  6.415240  7.680460  4.962950  7.307460  7.461650  3.707210  0.612930  7.853560  4.907730  8.648270  7.856540  4.895560  2.784640  7.865190  3.595850  2.084640  7.834820  3.523120  4.660240  7.273380  4.825240  4.342850  7.770950 
 3.958940  5.480750 26.267330  2.097360  6.955720  0.475890  4.996450  6.210910  4.341900  6.394630  2.627630  5.168960  0.654210  8.570640  1.336520  2.103900  7.544160  2.842460  1.987080  6.140520  4.576460  1.935110  4.407790  0.066810  7.213940  6.340470  5.959030  5.918230  1.267050  0.606650  5.471680  1.005810  3.090680  0.896750  2.120660  5.070510  4.090090  7.744420 25.334080  2.765470  0.705250  0.301680  4.281280  3.282600  3.398360  3.110150  0.620280  2.809660  1.831500  3.647130  3.250520  3.147820  4.101520  5.445930  1.379830  8.664090  5.664460  3.987400  2.858710  1.120990  0.097720  0.866420  3.188090  6.612960  0.245070  5.035040  1.001360  5.519790  2.068860  0.560720  8.595890 25.326720  7.000040  4.054750  0.548830  6.731670  6.539620  0.437010  4.682800  7.615350  1.662930  4.503120  8.404910  4.425720  7.524430  7.228860  3.346650  3.631090  6.732010  6.272360  6.727590  3.250610  2.733710  7.485250  4.909210  4.229990  3.471520  1.570560  4.808860  3.223420  5.403220  2.854120  5.526730  5.115610  2.048070  0.409260  1.753820  0.576650  7.389520  7.159020  7.864470  2.064030  7.196820  7.517420  6.236090  0.436680  8.048960  7.364590  8.604020  7.891390  7.477350  2.752920  8.003880  0.931990  0.502240  7.655640  2.365350  8.780940  7.508650  2.312540  2.710050  7.761990  6.139520  2.021870  7.913310  6.038980  5.063980  7.758600  7.264990  4.223820  7.947260  1.040650  2.023410  8.098820  0.867620  4.897710  7.791510  2.165230  4.117160  7.505770  6.123480  6.389380  7.677930  1.007540  6.395220  7.673330  4.985100  7.269500  7.458750  3.698640  0.612840  7.855500  4.913100  8.655070  7.843990  4.906620  2.818790  7.837810  3.590000  2.133050  7.836730  3.523490  4.688470  7.279960  4.815090  4.336940  7.730800 
 3.961140  5.475260 26.275010  2.105290  6.951020  0.475330  4.986580  6.211270  4.346340  6.380190  2.634020  5.173160  0.643880  8.553920  1.333460  2.100440  7.543200  2.844050  1.992710  6.135850  4.567470  1.938370  4.413590  0.074640  7.216330  6.345640  5.960910  5.921190  1.248170  0.607440  5.468270  1.024980  3.094370  0.906080  2.108430  5.065430  4.077200  7.734830 25.317160  2.763960  0.693270  0.300730  4.290340  3.282620  3.404010  3.102930  0.631740  2.798330  1.839110  3.655560  3.243600  3.147070  4.103490  5.434180  1.371770  8.666690  5.669510  3.990440  2.855020  1.115340  0.098030  0.870500  3.195210  6.627480  0.234990  5.032740  0.990430  5.517780  2.063580  0.561430  8.595210 25.329680  7.005430  4.059630  0.536400  6.736450  6.533210  0.442850  4.674760  7.622920  1.665590  4.504590  8.411710  4.431290  7.523700  7.227970  3.349470  3.613240  6.738060  6.276480  6.736540  3.262240  2.733930  7.498800  4.933420  4.245670  3.480210  1.569990  4.805620  3.222340  5.407730  2.850210  5.523150  5.123150  2.059560  0.406310  1.736300  0.572380  7.394070  7.166340  7.828220  2.034300  7.194640  7.532140  6.204850  0.442680  8.043050  7.385360  8.599840  7.884860  7.489480  2.756640  8.007430  0.931900  0.480910  7.645450  2.360260  8.766660  7.541170  2.334580  2.704390  7.769430  6.134500  2.000310  7.927200  6.073390  5.068290  7.758530  7.291320  4.242470  7.968280  1.075070  2.018980  8.109340  0.828750  4.858900  7.838360  2.137400  4.103700  7.512690  6.150980  6.374780  7.666320  0.980510  6.372910  7.671510  5.005950  7.235440  7.456770  3.682590  0.609830  7.851800  4.922540  8.665040  7.832490  4.915050  2.852400  7.811720  3.593550  2.168340  7.838530  3.518200  4.724540  7.284800  4.805310  4.320490  7.689640 
 3.964050  5.469870 26.283080  2.113490  6.946320  0.474230  4.977260  6.210970  4.350600  6.365140  2.640750  5.177090  0.633030  8.536650  1.330520  2.097380  7.542440  2.845590  1.997650  6.131100  4.559510  1.941150  4.418980  0.082810  7.218690  6.351410  5.961810  5.923430  1.229010  0.608410  5.464890  1.044740  3.097400  0.915980  2.096380  5.060150  4.064300  7.725340 25.300870  2.762520  0.681170  0.299880  4.299830  3.282810  3.409900  3.095520  0.643790  2.786200  1.846200  3.663060  3.236940  3.146200  4.105530  5.422140  1.364090  8.669320  5.673980  3.993430  2.851380  1.109380  0.098970  0.874960  3.202090  6.642210  0.224570  5.030980  0.978740  5.515600  2.057850  0.562240  8.594540 25.332790  7.011040  4.064380  0.523700  6.741330  6.527100  0.448800  4.666740  7.630480  1.668250  4.505350  8.417830  4.437250  7.522320  7.227280  3.352680  3.594830  6.743260  6.281050  6.745760  3.273120  2.734290  7.512350  4.957070  4.260940  3.488670  1.569870  4.803140  3.222320  5.412430  2.845520  5.519280  5.131140  2.071090  0.404060  1.719810  0.568090  7.399970  7.169100  7.793000  2.020220  7.201090  7.541970  6.164990  0.457140  8.033720  7.412870  8.599660  7.877930  7.492940  2.758430  8.011700  0.940340  0.466250  7.643410  2.346140  8.746320  7.578610  2.344110  2.702320  7.781300  6.137390  1.979040  7.942550  6.105270  5.048170  7.760560  7.322200  4.257170  7.987570  1.101850  2.009180  8.109400  0.802870  4.825700  7.879300  2.115050  4.094870  7.523850  6.177850  6.384870  7.657720  0.942410  6.349630  7.674870  5.024100  7.208640  7.455430  3.661130  0.604390  7.843190  4.933640  8.674790  7.821390  4.919960  2.881130  7.787580  3.609350  2.186810  7.839740  3.504840  4.766960  7.287780  4.800560  4.298280  7.648510 